 vasp.5.4.4.18Apr17-6-g9f103f2a35 (build Jul 09 2019 11:14:26) complex          
  
 executed on             LinuxIFC date 2022.08.30  00:30:28
 running on   16 total cores
 distrk:  each k-point on   16 cores,    1 groups
 distr:  one band on NCORES_PER_BAND=   1 cores,   16 groups


--------------------------------------------------------------------------------------------------------


 INCAR:
 POTCAR:   PAW_PBE Cu 05Jan2001                   

 ----------------------------------------------------------------------------- 
|                                                                             |
|           W    W    AA    RRRRR   N    N  II  N    N   GGGG   !!!           |
|           W    W   A  A   R    R  NN   N  II  NN   N  G    G  !!!           |
|           W    W  A    A  R    R  N N  N  II  N N  N  G       !!!           |
|           W WW W  AAAAAA  RRRRR   N  N N  II  N  N N  G  GGG   !            |
|           WW  WW  A    A  R   R   N   NN  II  N   NN  G    G                |
|           W    W  A    A  R    R  N    N  II  N    N   GGGG   !!!           |
|                                                                             |
|      For optimal performance we recommend to set                            |
|        NCORE= 4 - approx SQRT( number of cores)                             |
|      NCORE specifies how many cores store one orbital (NPAR=cpu/NCORE).     |
|      This setting can  greatly improve the performance of VASP for DFT.     |
|      The default,   NCORE=1            might be grossly inefficient         |
|      on modern multi-core architectures or massively parallel machines.     |
|      Do your own testing !!!!                                               |
|      Unfortunately you need to use the default for GW and RPA calculations. |
|      (for HF NCORE is supported but not extensively tested yet)             |
|                                                                             |
 ----------------------------------------------------------------------------- 

 POTCAR:   PAW_PBE Cu 05Jan2001                   
   VRHFIN =Cu: d10 p1                                                           
   LEXCH  = PE                                                                  
   EATOM  =  1390.9800 eV,  102.2341 Ry                                         
                                                                                
   TITEL  = PAW_PBE Cu 05Jan2001                                                
   LULTRA =        F    use ultrasoft PP ?                                      
   IUNSCR =        1    unscreen: 0-lin 1-nonlin 2-no                           
   RPACOR =    2.000    partial core radius                                     
   POMASS =   63.546; ZVAL   =   11.000    mass and valenz                      
   RCORE  =    2.300    outmost cutoff radius                                   
   RWIGS  =    2.480; RWIGS  =    1.312    wigner-seitz radius (au A)           
   ENMAX  =  273.214; ENMIN  =  204.910 eV                                      
   RCLOC  =    1.712    cutoff for local pot                                    
   LCOR   =        T    correct aug charges                                     
   LPAW   =        T    paw PP                                                  
   EAUG   =  516.456                                                            
   DEXC   =    -.008                                                            
   RMAX   =    2.789    core radius for proj-oper                               
   RAUG   =    1.300    factor for augmentation sphere                          
   RDEP   =    2.302    radius for radial grids                                 
   QCUT   =   -4.481; QGAM   =    8.962    optimization parameters              
                                                                                
   Description                                                                  
     l     E      TYP  RCUT    TYP  RCUT                                        
     2   .000     23  2.300                                                     
     2   .000     23  2.300                                                     
     0   .000     23  2.300                                                     
     0   .000     23  2.300                                                     
     1  -.200     23  2.300                                                     
     1   .000     23  2.300                                                     
     3   .000      7   .000                                                     
  local pseudopotential read in
  partial core-charges read in
  atomic valenz-charges read in
  non local Contribution for L=           2  read in
    real space projection operators read in
  non local Contribution for L=           2  read in
    real space projection operators read in
  non local Contribution for L=           0  read in
    real space projection operators read in
  non local Contribution for L=           0  read in
    real space projection operators read in
  non local Contribution for L=           1  read in
    real space projection operators read in
  non local Contribution for L=           1  read in
    real space projection operators read in
    PAW grid and wavefunctions read in
 
   number of l-projection  operators is LMAX  =           6
   number of lm-projection operators is LMMAX =          18
 

 ----------------------------------------------------------------------------- 
|                                                                             |
|  ADVICE TO THIS USER RUNNING 'VASP/VAMP'   (HEAR YOUR MASTER'S VOICE ...):  |
|                                                                             |
|      You have a (more or less) 'small supercell' and for smaller cells      |
|      it is recommended  to use the reciprocal-space projection scheme!      |
|      The real space optimization is not  efficient for small cells and it   |
|      is also less accurate ...                                              |
|      Therefore set LREAL=.FALSE. in the  INCAR file                         |
|                                                                             |
 ----------------------------------------------------------------------------- 

 Optimization of the real space projectors (new method)

 maximal supplied QI-value         = 16.25
 optimisation between [QCUT,QGAM] = [ 11.38, 22.75] = [ 36.24,144.96] Ry 
 Optimized for a Real-space Cutoff    1.39 Angstroem

   l    n(q)    QCUT    max X(q) W(low)/X(q) W(high)/X(q)  e(spline) 
   2      8    11.376     4.977    0.31E-04    0.13E-04    0.34E-07
   2      8    11.376    13.467    0.33E-03    0.41E-04    0.15E-06
   0      9    11.376    13.303    0.12E-04    0.78E-05    0.13E-07
   0      9    11.376    44.613    0.65E-04    0.10E-03    0.17E-06
   1      9    11.376     5.276    0.85E-04    0.12E-04    0.29E-07
   1      9    11.376     7.322    0.38E-03    0.10E-03    0.13E-06
 PAW_PBE Cu 05Jan2001                   :
 energy of atom  1       EATOM=-1390.9800
 kinetic energy error for atom=    0.0032 (will be added to EATOM!!)
 
 
 POSCAR: Cu                                      
  positions in cartesian coordinates
  No initial velocities read in
 exchange correlation table for  LEXCH =        8
   RHO(1)=    0.500       N(1)  =     2000
   RHO(2)=  100.500       N(2)  =     4000
 


--------------------------------------------------------------------------------------------------------


 ion  position               nearest neighbor table
   1  0.000  0.000  0.000-
 

IMPORTANT INFORMATION: All symmetrisations will be switched off!
NOSYMM: (Re-)initialisation of all symmetry stuff for point group C_1.

 
 
 KPOINTS: Regular 4 x 4 x 4 mesh centered at Gamma

Automatic generation of k-mesh.
Space group operators:
 irot       det(A)        alpha          n_x          n_y          n_z        tau_x        tau_y        tau_z
    1     1.000000     0.000000     1.000000     0.000000     0.000000     0.000000     0.000000     0.000000
 
 Subroutine IBZKPT returns following result:
 ===========================================
 
 Found     36 irreducible k-points:
 
 Following reciprocal coordinates:
            Coordinates               Weight
  0.000000  0.000000  0.000000      1.000000
  0.250000  0.000000  0.000000      2.000000
  0.500000  0.000000  0.000000      1.000000
  0.000000  0.250000  0.000000      2.000000
  0.250000  0.250000  0.000000      2.000000
  0.500000  0.250000  0.000000      2.000000
 -0.250000  0.250000  0.000000      2.000000
  0.000000  0.500000  0.000000      1.000000
  0.250000  0.500000  0.000000      2.000000
  0.500000  0.500000  0.000000      1.000000
  0.000000  0.000000  0.250000      2.000000
  0.250000  0.000000  0.250000      2.000000
  0.500000  0.000000  0.250000      2.000000
 -0.250000  0.000000  0.250000      2.000000
  0.000000  0.250000  0.250000      2.000000
  0.250000  0.250000  0.250000      2.000000
  0.500000  0.250000  0.250000      2.000000
 -0.250000  0.250000  0.250000      2.000000
  0.000000  0.500000  0.250000      2.000000
  0.250000  0.500000  0.250000      2.000000
  0.500000  0.500000  0.250000      2.000000
 -0.250000  0.500000  0.250000      2.000000
  0.000000 -0.250000  0.250000      2.000000
  0.250000 -0.250000  0.250000      2.000000
  0.500000 -0.250000  0.250000      2.000000
 -0.250000 -0.250000  0.250000      2.000000
  0.000000  0.000000  0.500000      1.000000
  0.250000  0.000000  0.500000      2.000000
  0.500000  0.000000  0.500000      1.000000
  0.000000  0.250000  0.500000      2.000000
  0.250000  0.250000  0.500000      2.000000
  0.500000  0.250000  0.500000      2.000000
 -0.250000  0.250000  0.500000      2.000000
  0.000000  0.500000  0.500000      1.000000
  0.250000  0.500000  0.500000      2.000000
  0.500000  0.500000  0.500000      1.000000
 
 Following cartesian coordinates:
            Coordinates               Weight
  0.000000  0.000000  0.000000      1.000000
  0.069444  0.000000  0.000000      2.000000
  0.138889  0.000000  0.000000      1.000000
  0.000000  0.069444  0.000000      2.000000
  0.069444  0.069444  0.000000      2.000000
  0.138889  0.069444  0.000000      2.000000
 -0.069444  0.069444  0.000000      2.000000
  0.000000  0.138889  0.000000      1.000000
  0.069444  0.138889  0.000000      2.000000
  0.138889  0.138889  0.000000      1.000000
  0.000000  0.000000  0.069444      2.000000
  0.069444  0.000000  0.069444      2.000000
  0.138889  0.000000  0.069444      2.000000
 -0.069444  0.000000  0.069444      2.000000
  0.000000  0.069444  0.069444      2.000000
  0.069444  0.069444  0.069444      2.000000
  0.138889  0.069444  0.069444      2.000000
 -0.069444  0.069444  0.069444      2.000000
  0.000000  0.138889  0.069444      2.000000
  0.069444  0.138889  0.069444      2.000000
  0.138889  0.138889  0.069444      2.000000
 -0.069444  0.138889  0.069444      2.000000
  0.000000 -0.069444  0.069444      2.000000
  0.069444 -0.069444  0.069444      2.000000
  0.138889 -0.069444  0.069444      2.000000
 -0.069444 -0.069444  0.069444      2.000000
  0.000000  0.000000  0.138889      1.000000
  0.069444  0.000000  0.138889      2.000000
  0.138889  0.000000  0.138889      1.000000
  0.000000  0.069444  0.138889      2.000000
  0.069444  0.069444  0.138889      2.000000
  0.138889  0.069444  0.138889      2.000000
 -0.069444  0.069444  0.138889      2.000000
  0.000000  0.138889  0.138889      1.000000
  0.069444  0.138889  0.138889      2.000000
  0.138889  0.138889  0.138889      1.000000
 


--------------------------------------------------------------------------------------------------------




 Dimension of arrays:
   k-points           NKPTS =     36   k-points in BZ     NKDIM =     36   number of bands    NBANDS=     16
   number of dos      NEDOS =    301   number of ions     NIONS =      1
   non local maximal  LDIM  =      6   non local SUM 2l+1 LMDIM =     18
   total plane-waves  NPLWV =   8000
   max r-space proj   IRMAX =   1977   max aug-charges    IRDMAX=   6217
   dimension x,y,z NGX =    20 NGY =   20 NGZ =   20
   dimension x,y,z NGXF=    40 NGYF=   40 NGZF=   40
   support grid    NGXF=    40 NGYF=   40 NGZF=   40
   ions per type =               1
   NGX,Y,Z   is equivalent  to a cutoff of   9.24,  9.24,  9.24 a.u.
   NGXF,Y,Z  is equivalent  to a cutoff of  18.47, 18.47, 18.47 a.u.

 SYSTEM =  Cu_optimization                         
 POSCAR =  Cu                                      

 Startparameter for this run:
   NWRITE =      2    write-flag & timer
   PREC   = normal    normal or accurate (medium, high low for compatibility)
   ISTART =      0    job   : 0-new  1-cont  2-samecut
   ICHARG =      2    charge: 1-file 2-atom 10-const
   ISPIN  =      1    spin polarized calculation?
   LNONCOLLINEAR =      F non collinear calculations
   LSORBIT =      F    spin-orbit coupling
   INIWAV =      1    electr: 0-lowe 1-rand  2-diag
   LASPH  =      F    aspherical Exc in radial PAW
   METAGGA=      F    non-selfconsistent MetaGGA calc.

 Electronic Relaxation 1
   ENCUT  =  500.0 eV  36.75 Ry    6.06 a.u.   6.56  6.56  6.56*2*pi/ulx,y,z
   ENINI  =  500.0     initial cutoff
   ENAUG  =  516.5 eV  augmentation charge cutoff
   NELM   =     60;   NELMIN=  4; NELMDL= -5     # of ELM steps 
   EDIFF  = 0.1E-03   stopping-criterion for ELM
   LREAL  =      T    real-space projection
   NLSPLINE    = F    spline interpolate recip. space projectors
   LCOMPAT=      F    compatible to vasp.4.4
   GGA_COMPAT  = T    GGA compatible to vasp.4.4-vasp.4.6
   LMAXPAW     = -100 max onsite density
   LMAXMIX     =    2 max onsite mixed and CHGCAR
   VOSKOWN=      0    Vosko Wilk Nusair interpolation
   ROPT   =   -0.00050
 Ionic relaxation
   EDIFFG = -.1E-01   stopping-criterion for IOM
   NSW    =    700    number of steps for IOM
   NBLOCK =      1;   KBLOCK =    700    inner block; outer block 
   IBRION =      2    ionic relax: 0-MD 1-quasi-New 2-CG
   NFREE  =      1    steps in history (QN), initial steepest desc. (CG)
   ISIF   =      2    stress and relaxation
   IWAVPR =     11    prediction:  0-non 1-charg 2-wave 3-comb
   ISYM   =      0    0-nonsym 1-usesym 2-fastsym
   LCORR  =      T    Harris-Foulkes like correction to forces

   POTIM  = 0.1000    time-step for ionic-motion
   TEIN   =    0.0    initial temperature
   TEBEG  =    0.0;   TEEND  =   0.0 temperature during run
   SMASS  =  -3.00    Nose mass-parameter (am)
   estimated Nose-frequenzy (Omega)   =  0.10E-29 period in steps =****** mass=  -0.296E-27a.u.
   SCALEE = 1.0000    scale energy and forces
   NPACO  =    256;   APACO  = 16.0  distance and # of slots for P.C.
   PSTRESS=    0.0 pullay stress

  Mass of Ions in am
   POMASS =  63.55
  Ionic Valenz
   ZVAL   =  11.00
  Atomic Wigner-Seitz radii
   RWIGS  =  -1.00
  virtual crystal weights 
   VCA    =   1.00
   NELECT =      11.0000    total number of electrons
   NUPDOWN=      -1.0000    fix difference up-down

 DOS related values:
   EMIN   =  10.00;   EMAX   =-10.00  energy-range for DOS
   EFERMI =   0.00
   ISMEAR =     1;   SIGMA  =   0.20  broadening in eV -4-tet -1-fermi 0-gaus

 Electronic relaxation 2 (details)
   IALGO  =     38    algorithm
   LDIAG  =      T    sub-space diagonalisation (order eigenvalues)
   LSUBROT=      F    optimize rotation matrix (better conditioning)
   TURBO    =      0    0=normal 1=particle mesh
   IRESTART =      0    0=no restart 2=restart with 2 vectors
   NREBOOT  =      0    no. of reboots
   NMIN     =      0    reboot dimension
   EREF     =   0.00    reference energy to select bands
   IMIX   =      4    mixing-type and parameters
     AMIX     =   0.40;   BMIX     =  1.00
     AMIX_MAG =   1.60;   BMIX_MAG =  1.00
     AMIN     =   0.10
     WC   =   100.;   INIMIX=   1;  MIXPRE=   1;  MAXMIX= -45

 Intra band minimization:
   WEIMIN = 0.0010     energy-eigenvalue tresh-hold
   EBREAK =  0.16E-05  absolut break condition
   DEPER  =   0.30     relativ break condition  

   TIME   =   0.40     timestep for ELM

  volume/ion in A,a.u.               =      46.66       314.85
  Fermi-wavevector in a.u.,A,eV,Ry     =   1.011354  1.911182 13.916543  1.022837
  Thomas-Fermi vector in A             =   2.144399
 
 Write flags
   LWAVE        =      T    write WAVECAR
   LDOWNSAMPLE  =      F    k-point downsampling of WAVECAR
   LCHARG       =      T    write CHGCAR
   LVTOT        =      F    write LOCPOT, total local potential
   LVHAR        =      F    write LOCPOT, Hartree potential only
   LELF         =      F    write electronic localiz. function (ELF)
   LORBIT       =      0    0 simple, 1 ext, 2 COOP (PROOUT), +10 PAW based schemes


 Dipole corrections
   LMONO  =      F    monopole corrections only (constant potential shift)
   LDIPOL =      F    correct potential (dipole corrections)
   IDIPOL =      0    1-x, 2-y, 3-z, 4-all directions 
   EPSILON=  1.0000000 bulk dielectric constant

 Exchange correlation treatment:
   GGA     =    --    GGA type
   LEXCH   =     8    internal setting for exchange type
   VOSKOWN=      0    Vosko Wilk Nusair interpolation
   LHFCALC =     F    Hartree Fock is set to
   LHFONE  =     F    Hartree Fock one center treatment
   AEXX    =    0.0000 exact exchange contribution

 Linear response parameters
   LEPSILON=     F    determine dielectric tensor
   LRPA    =     F    only Hartree local field effects (RPA)
   LNABLA  =     F    use nabla operator in PAW spheres
   LVEL    =     F    velocity operator in full k-point grid
   LINTERFAST=   F  fast interpolation
   KINTER  =     0    interpolate to denser k-point grid
   CSHIFT  =0.1000    complex shift for real part using Kramers Kronig
   OMEGAMAX=  -1.0    maximum frequency
   DEG_THRESHOLD= 0.2000000E-02 threshold for treating states as degnerate
   RTIME   =   -0.100 relaxation time in fs
  (WPLASMAI=    0.000 imaginary part of plasma frequency in eV, 0.658/RTIME)
   DFIELD  = 0.0000000 0.0000000 0.0000000 field for delta impulse in time
 
 Orbital magnetization related:
   ORBITALMAG=     F  switch on orbital magnetization
   LCHIMAG   =     F  perturbation theory with respect to B field
   DQ        =  0.001000  dq finite difference perturbation B field
   LLRAUG    =     F  two centre corrections for induced B field



--------------------------------------------------------------------------------------------------------


 conjugate gradient relaxation of ions
 charge density and potential will be updated during run
 non-spin polarized calculation
 Variant of blocked Davidson
 Davidson routine will perform the subspace rotation
 perform sub-space diagonalisation
    after iterative eigenvector-optimisation
 modified Broyden-mixing scheme, WC =      100.0
 initial mixing is a Kerker type mixing with AMIX =  0.4000 and BMIX =      1.0000
 Hartree-type preconditioning will be used
 using additional bands           10
 real space projection scheme for non local part
 use partial core corrections
 calculate Harris-corrections to forces 
   (improved forces if not selfconsistent)
 use gradient corrections 
 use of overlap-Matrix (Vanderbilt PP)
 Methfessel and Paxton  Order N= 1 SIGMA  =   0.20


--------------------------------------------------------------------------------------------------------


  energy-cutoff  :      500.00
  volume of cell :       46.66
      direct lattice vectors                 reciprocal lattice vectors
     3.600000000  0.000000000  0.000000000     0.277777778  0.000000000  0.000000000
     0.000000000  3.600000000  0.000000000     0.000000000  0.277777778  0.000000000
     0.000000000  0.000000000  3.600000000     0.000000000  0.000000000  0.277777778

  length of vectors
     3.600000000  3.600000000  3.600000000     0.277777778  0.277777778  0.277777778


 
 k-points in units of 2pi/SCALE and weight: Regular 4 x 4 x 4 mesh centered at Gamma
   0.00000000  0.00000000  0.00000000       0.016
   0.06944444  0.00000000  0.00000000       0.031
   0.13888889  0.00000000  0.00000000       0.016
   0.00000000  0.06944444  0.00000000       0.031
   0.06944444  0.06944444  0.00000000       0.031
   0.13888889  0.06944444  0.00000000       0.031
  -0.06944444  0.06944444  0.00000000       0.031
   0.00000000  0.13888889  0.00000000       0.016
   0.06944444  0.13888889  0.00000000       0.031
   0.13888889  0.13888889  0.00000000       0.016
   0.00000000  0.00000000  0.06944444       0.031
   0.06944444  0.00000000  0.06944444       0.031
   0.13888889  0.00000000  0.06944444       0.031
  -0.06944444  0.00000000  0.06944444       0.031
   0.00000000  0.06944444  0.06944444       0.031
   0.06944444  0.06944444  0.06944444       0.031
   0.13888889  0.06944444  0.06944444       0.031
  -0.06944444  0.06944444  0.06944444       0.031
   0.00000000  0.13888889  0.06944444       0.031
   0.06944444  0.13888889  0.06944444       0.031
   0.13888889  0.13888889  0.06944444       0.031
  -0.06944444  0.13888889  0.06944444       0.031
   0.00000000 -0.06944444  0.06944444       0.031
   0.06944444 -0.06944444  0.06944444       0.031
   0.13888889 -0.06944444  0.06944444       0.031
  -0.06944444 -0.06944444  0.06944444       0.031
   0.00000000  0.00000000  0.13888889       0.016
   0.06944444  0.00000000  0.13888889       0.031
   0.13888889  0.00000000  0.13888889       0.016
   0.00000000  0.06944444  0.13888889       0.031
   0.06944444  0.06944444  0.13888889       0.031
   0.13888889  0.06944444  0.13888889       0.031
  -0.06944444  0.06944444  0.13888889       0.031
   0.00000000  0.13888889  0.13888889       0.016
   0.06944444  0.13888889  0.13888889       0.031
   0.13888889  0.13888889  0.13888889       0.016
 
 k-points in reciprocal lattice and weights: Regular 4 x 4 x 4 mesh centered at Gamma
   0.00000000  0.00000000  0.00000000       0.016
   0.25000000  0.00000000  0.00000000       0.031
   0.50000000  0.00000000  0.00000000       0.016
   0.00000000  0.25000000  0.00000000       0.031
   0.25000000  0.25000000  0.00000000       0.031
   0.50000000  0.25000000  0.00000000       0.031
  -0.25000000  0.25000000  0.00000000       0.031
   0.00000000  0.50000000  0.00000000       0.016
   0.25000000  0.50000000  0.00000000       0.031
   0.50000000  0.50000000  0.00000000       0.016
   0.00000000  0.00000000  0.25000000       0.031
   0.25000000  0.00000000  0.25000000       0.031
   0.50000000  0.00000000  0.25000000       0.031
  -0.25000000  0.00000000  0.25000000       0.031
   0.00000000  0.25000000  0.25000000       0.031
   0.25000000  0.25000000  0.25000000       0.031
   0.50000000  0.25000000  0.25000000       0.031
  -0.25000000  0.25000000  0.25000000       0.031
   0.00000000  0.50000000  0.25000000       0.031
   0.25000000  0.50000000  0.25000000       0.031
   0.50000000  0.50000000  0.25000000       0.031
  -0.25000000  0.50000000  0.25000000       0.031
   0.00000000 -0.25000000  0.25000000       0.031
   0.25000000 -0.25000000  0.25000000       0.031
   0.50000000 -0.25000000  0.25000000       0.031
  -0.25000000 -0.25000000  0.25000000       0.031
   0.00000000  0.00000000  0.50000000       0.016
   0.25000000  0.00000000  0.50000000       0.031
   0.50000000  0.00000000  0.50000000       0.016
   0.00000000  0.25000000  0.50000000       0.031
   0.25000000  0.25000000  0.50000000       0.031
   0.50000000  0.25000000  0.50000000       0.031
  -0.25000000  0.25000000  0.50000000       0.031
   0.00000000  0.50000000  0.50000000       0.016
   0.25000000  0.50000000  0.50000000       0.031
   0.50000000  0.50000000  0.50000000       0.016
 
 position of ions in fractional coordinates (direct lattice) 
   0.00000000  0.00000000  0.00000000
 
 position of ions in cartesian coordinates  (Angst):
   0.00000000  0.00000000  0.00000000
 


--------------------------------------------------------------------------------------------------------


 k-point  1 :   0.0000 0.0000 0.0000  plane waves:    1213
 k-point  2 :   0.2500 0.0000 0.0000  plane waves:    1213
 k-point  3 :   0.5000 0.0000 0.0000  plane waves:    1166
 k-point  4 :   0.0000 0.2500 0.0000  plane waves:    1213
 k-point  5 :   0.2500 0.2500 0.0000  plane waves:    1177
 k-point  6 :   0.5000 0.2500 0.0000  plane waves:    1176
 k-point  7 :  -0.2500 0.2500 0.0000  plane waves:    1177
 k-point  8 :   0.0000 0.5000 0.0000  plane waves:    1166
 k-point  9 :   0.2500 0.5000 0.0000  plane waves:    1176
 k-point 10 :   0.5000 0.5000 0.0000  plane waves:    1180
 k-point 11 :   0.0000 0.0000 0.2500  plane waves:    1213
 k-point 12 :   0.2500 0.0000 0.2500  plane waves:    1177
 k-point 13 :   0.5000 0.0000 0.2500  plane waves:    1176
 k-point 14 :  -0.2500 0.0000 0.2500  plane waves:    1177
 k-point 15 :   0.0000 0.2500 0.2500  plane waves:    1177
 k-point 16 :   0.2500 0.2500 0.2500  plane waves:    1181
 k-point 17 :   0.5000 0.2500 0.2500  plane waves:    1192
 k-point 18 :  -0.2500 0.2500 0.2500  plane waves:    1181
 k-point 19 :   0.0000 0.5000 0.2500  plane waves:    1176
 k-point 20 :   0.2500 0.5000 0.2500  plane waves:    1192
 k-point 21 :   0.5000 0.5000 0.2500  plane waves:    1200
 k-point 22 :  -0.2500 0.5000 0.2500  plane waves:    1192
 k-point 23 :   0.0000-0.2500 0.2500  plane waves:    1177
 k-point 24 :   0.2500-0.2500 0.2500  plane waves:    1181
 k-point 25 :   0.5000-0.2500 0.2500  plane waves:    1192
 k-point 26 :  -0.2500-0.2500 0.2500  plane waves:    1181
 k-point 27 :   0.0000 0.0000 0.5000  plane waves:    1166
 k-point 28 :   0.2500 0.0000 0.5000  plane waves:    1176
 k-point 29 :   0.5000 0.0000 0.5000  plane waves:    1180
 k-point 30 :   0.0000 0.2500 0.5000  plane waves:    1176
 k-point 31 :   0.2500 0.2500 0.5000  plane waves:    1192
 k-point 32 :   0.5000 0.2500 0.5000  plane waves:    1200
 k-point 33 :  -0.2500 0.2500 0.5000  plane waves:    1192
 k-point 34 :   0.0000 0.5000 0.5000  plane waves:    1180
 k-point 35 :   0.2500 0.5000 0.5000  plane waves:    1200
 k-point 36 :   0.5000 0.5000 0.5000  plane waves:    1208

 maximum and minimum number of plane-waves per node :      1213     1166

 maximum number of plane-waves:      1213
 maximum index in each direction: 
   IXMAX=    6   IYMAX=    6   IZMAX=    6
   IXMIN=   -7   IYMIN=   -7   IZMIN=   -7


 serial   3D FFT for wavefunctions
 parallel 3D FFT for charge:
    minimum data exchange during FFTs selected (reduces bandwidth)


 total amount of memory used by VASP MPI-rank0    32073. kBytes
=======================================================================

   base      :      30000. kBytes
   nonlr-proj:        327. kBytes
   fftplans  :        373. kBytes
   grid      :        640. kBytes
   one-center:         15. kBytes
   wavefun   :        718. kBytes
 
     INWAV:  cpu time    0.0000: real time    0.0001
 Broyden mixing: mesh for mixing (old mesh)
   NGX = 13   NGY = 13   NGZ = 13
  (NGX  = 40   NGY  = 40   NGZ  = 40)
  gives a total of   2197 points

 initial charge density was supplied:
 charge density of overlapping atoms calculated
 number of electron      11.0000000 magnetization 
 keeping initial charge density in first step


--------------------------------------------------------------------------------------------------------


 Maximum index for non-local projection operator         1863
 Maximum index for augmentation-charges          570 (set IRDMAX)


--------------------------------------------------------------------------------------------------------


 First call to EWALD:  gamma=   0.492
 Maximum number of real-space cells 3x 3x 3
 Maximum number of reciprocal cells 3x 3x 3

    FEWALD:  cpu time    0.0014: real time    0.0014


--------------------------------------- Iteration      1(   1)  ---------------------------------------


    POTLOK:  cpu time    0.0058: real time    0.0058
    SETDIJ:  cpu time    0.0023: real time    0.0023
     EDDAV:  cpu time    0.1077: real time    0.1077
       DOS:  cpu time    0.0005: real time    0.0005
    --------------------------------------------
      LOOP:  cpu time    0.1163: real time    0.1164

 eigenvalue-minimisations  :  1152
 total energy-change (2. order) : 0.1354051E+02  (-0.4796966E+03)
 number of electron      11.0000000 magnetization 
 augmentation part       11.0000000 magnetization 

 Free energy of the ion-electron system (eV)
  ---------------------------------------------------
  alpha Z        PSCENC =        27.38393840
  Ewald energy   TEWEN  =      -686.61584463
  -Hartree energ DENC   =      -601.11764569
  -exchange      EXHF   =         0.00000000
  -V(xc)+E(xc)   XCENC  =        42.07833675
  PAW double counting   =      1082.05229236    -1226.07700675
  entropy T*S    EENTRO =         0.00761145
  eigenvalues    EBANDS =       -15.14800041
  atomic energy  EATOM  =      1390.97683016
  Solvation  Ediel_sol  =         0.00000000
  ---------------------------------------------------
  free energy    TOTEN  =        13.54051165 eV

  energy without entropy =       13.53290019  energy(sigma->0) =       13.53797449


--------------------------------------------------------------------------------------------------------




--------------------------------------- Iteration      1(   2)  ---------------------------------------


     EDDAV:  cpu time    0.1275: real time    0.1276
       DOS:  cpu time    0.0004: real time    0.0004
    --------------------------------------------
      LOOP:  cpu time    0.1280: real time    0.1280

 eigenvalue-minimisations  :  1328
 total energy-change (2. order) :-0.1480795E+02  (-0.1416608E+02)
 number of electron      11.0000000 magnetization 
 augmentation part       11.0000000 magnetization 

 Free energy of the ion-electron system (eV)
  ---------------------------------------------------
  alpha Z        PSCENC =        27.38393840
  Ewald energy   TEWEN  =      -686.61584463
  -Hartree energ DENC   =      -601.11764569
  -exchange      EXHF   =         0.00000000
  -V(xc)+E(xc)   XCENC  =        42.07833675
  PAW double counting   =      1082.05229236    -1226.07700675
  entropy T*S    EENTRO =        -0.00517697
  eigenvalues    EBANDS =       -29.94316592
  atomic energy  EATOM  =      1390.97683016
  Solvation  Ediel_sol  =         0.00000000
  ---------------------------------------------------
  free energy    TOTEN  =        -1.26744228 eV

  energy without entropy =       -1.26226531  energy(sigma->0) =       -1.26571663


--------------------------------------------------------------------------------------------------------




--------------------------------------- Iteration      1(   3)  ---------------------------------------


     EDDAV:  cpu time    0.1572: real time    0.1573
       DOS:  cpu time    0.0004: real time    0.0004
    --------------------------------------------
      LOOP:  cpu time    0.1577: real time    0.1577

 eigenvalue-minimisations  :  1536
 total energy-change (2. order) :-0.1087216E+00  (-0.1087182E+00)
 number of electron      11.0000000 magnetization 
 augmentation part       11.0000000 magnetization 

 Free energy of the ion-electron system (eV)
  ---------------------------------------------------
  alpha Z        PSCENC =        27.38393840
  Ewald energy   TEWEN  =      -686.61584463
  -Hartree energ DENC   =      -601.11764569
  -exchange      EXHF   =         0.00000000
  -V(xc)+E(xc)   XCENC  =        42.07833675
  PAW double counting   =      1082.05229236    -1226.07700675
  entropy T*S    EENTRO =        -0.00517648
  eigenvalues    EBANDS =       -30.05188803
  atomic energy  EATOM  =      1390.97683016
  Solvation  Ediel_sol  =         0.00000000
  ---------------------------------------------------
  free energy    TOTEN  =        -1.37616391 eV

  energy without entropy =       -1.37098743  energy(sigma->0) =       -1.37443842


--------------------------------------------------------------------------------------------------------




--------------------------------------- Iteration      1(   4)  ---------------------------------------


     EDDAV:  cpu time    0.1832: real time    0.1833
       DOS:  cpu time    0.0004: real time    0.0004
    --------------------------------------------
      LOOP:  cpu time    0.1836: real time    0.1837

 eigenvalue-minimisations  :  1664
 total energy-change (2. order) :-0.1165356E-03  (-0.1165357E-03)
 number of electron      11.0000000 magnetization 
 augmentation part       11.0000000 magnetization 

 Free energy of the ion-electron system (eV)
  ---------------------------------------------------
  alpha Z        PSCENC =        27.38393840
  Ewald energy   TEWEN  =      -686.61584463
  -Hartree energ DENC   =      -601.11764569
  -exchange      EXHF   =         0.00000000
  -V(xc)+E(xc)   XCENC  =        42.07833675
  PAW double counting   =      1082.05229236    -1226.07700675
  entropy T*S    EENTRO =        -0.00517637
  eigenvalues    EBANDS =       -30.05200468
  atomic energy  EATOM  =      1390.97683016
  Solvation  Ediel_sol  =         0.00000000
  ---------------------------------------------------
  free energy    TOTEN  =        -1.37628045 eV

  energy without entropy =       -1.37110407  energy(sigma->0) =       -1.37455499


--------------------------------------------------------------------------------------------------------




--------------------------------------- Iteration      1(   5)  ---------------------------------------


     EDDAV:  cpu time    0.1393: real time    0.1394
       DOS:  cpu time    0.0004: real time    0.0004
    CHARGE:  cpu time    0.0052: real time    0.0052
    MIXING:  cpu time    0.0004: real time    0.0005
    --------------------------------------------
      LOOP:  cpu time    0.1454: real time    0.1455

 eigenvalue-minimisations  :  1376
 total energy-change (2. order) :-0.7115182E-07  (-0.7094934E-07)
 number of electron      11.0000062 magnetization 
 augmentation part        7.1758489 magnetization 

 Broyden mixing:
  rms(total) = 0.22003E+00    rms(broyden)= 0.21997E+00
  rms(prec ) = 0.62210E+00
  weight for this iteration     100.00

 Free energy of the ion-electron system (eV)
  ---------------------------------------------------
  alpha Z        PSCENC =        27.38393840
  Ewald energy   TEWEN  =      -686.61584463
  -Hartree energ DENC   =      -601.11764569
  -exchange      EXHF   =         0.00000000
  -V(xc)+E(xc)   XCENC  =        42.07833675
  PAW double counting   =      1082.05229236    -1226.07700675
  entropy T*S    EENTRO =        -0.00517637
  eigenvalues    EBANDS =       -30.05200475
  atomic energy  EATOM  =      1390.97683016
  Solvation  Ediel_sol  =         0.00000000
  ---------------------------------------------------
  free energy    TOTEN  =        -1.37628052 eV

  energy without entropy =       -1.37110415  energy(sigma->0) =       -1.37455506


--------------------------------------------------------------------------------------------------------




--------------------------------------- Iteration      1(   6)  ---------------------------------------


    POTLOK:  cpu time    0.0036: real time    0.0037
    SETDIJ:  cpu time    0.0019: real time    0.0019
     EDDAV:  cpu time    0.1051: real time    0.1051
       DOS:  cpu time    0.0004: real time    0.0004
    CHARGE:  cpu time    0.0043: real time    0.0043
    MIXING:  cpu time    0.0005: real time    0.0005
    --------------------------------------------
      LOOP:  cpu time    0.1158: real time    0.1159

 eigenvalue-minimisations  :  1152
 total energy-change (2. order) :-0.1299994E-01  (-0.3429058E+00)
 number of electron      11.0000069 magnetization 
 augmentation part        7.5362710 magnetization 

 Broyden mixing:
  rms(total) = 0.20824E+00    rms(broyden)= 0.20820E+00
  rms(prec ) = 0.48463E+00
  weight for this iteration     100.00

 eigenvalues of (default mixing * dielectric matrix)
  average eigenvalue GAMMA=   0.5094
  0.5094

 Free energy of the ion-electron system (eV)
  ---------------------------------------------------
  alpha Z        PSCENC =        27.38393840
  Ewald energy   TEWEN  =      -686.61584463
  -Hartree energ DENC   =      -589.27078451
  -exchange      EXHF   =         0.00000000
  -V(xc)+E(xc)   XCENC  =        41.56138178
  PAW double counting   =      1060.14383882    -1200.85464535
  entropy T*S    EENTRO =        -0.00517104
  eigenvalues    EBANDS =       -44.70882410
  atomic energy  EATOM  =      1390.97683016
  Solvation  Ediel_sol  =         0.00000000
  ---------------------------------------------------
  free energy    TOTEN  =        -1.38928046 eV

  energy without entropy =       -1.38410942  energy(sigma->0) =       -1.38755678


--------------------------------------------------------------------------------------------------------




--------------------------------------- Iteration      1(   7)  ---------------------------------------


    POTLOK:  cpu time    0.0038: real time    0.0038
    SETDIJ:  cpu time    0.0018: real time    0.0018
     EDDAV:  cpu time    0.1048: real time    0.1048
       DOS:  cpu time    0.0004: real time    0.0004
    CHARGE:  cpu time    0.0043: real time    0.0043
    MIXING:  cpu time    0.0003: real time    0.0003
    --------------------------------------------
      LOOP:  cpu time    0.1155: real time    0.1156

 eigenvalue-minimisations  :  1152
 total energy-change (2. order) : 0.1028775E+00  (-0.6962117E-01)
 number of electron      11.0000067 magnetization 
 augmentation part        7.3793014 magnetization 

 Broyden mixing:
  rms(total) = 0.23808E-01    rms(broyden)= 0.23781E-01
  rms(prec ) = 0.59625E-01
  weight for this iteration     100.00

 eigenvalues of (default mixing * dielectric matrix)
  average eigenvalue GAMMA=   1.2748
  1.9834  0.5661

 Free energy of the ion-electron system (eV)
  ---------------------------------------------------
  alpha Z        PSCENC =        27.38393840
  Ewald energy   TEWEN  =      -686.61584463
  -Hartree energ DENC   =      -594.02556399
  -exchange      EXHF   =         0.00000000
  -V(xc)+E(xc)   XCENC  =        41.78859090
  PAW double counting   =      1068.11012156    -1211.28451208
  entropy T*S    EENTRO =        -0.00424170
  eigenvalues    EBANDS =       -37.61572155
  atomic energy  EATOM  =      1390.97683016
  Solvation  Ediel_sol  =         0.00000000
  ---------------------------------------------------
  free energy    TOTEN  =        -1.28640292 eV

  energy without entropy =       -1.28216122  energy(sigma->0) =       -1.28498902


--------------------------------------------------------------------------------------------------------




--------------------------------------- Iteration      1(   8)  ---------------------------------------


    POTLOK:  cpu time    0.0037: real time    0.0037
    SETDIJ:  cpu time    0.0018: real time    0.0018
     EDDAV:  cpu time    0.1184: real time    0.1184
       DOS:  cpu time    0.0004: real time    0.0004
    CHARGE:  cpu time    0.0100: real time    0.0100
    MIXING:  cpu time    0.0003: real time    0.0003
    --------------------------------------------
      LOOP:  cpu time    0.1346: real time    0.1347

 eigenvalue-minimisations  :  1248
 total energy-change (2. order) :-0.1812168E-02  (-0.2418454E-02)
 number of electron      11.0000066 magnetization 
 augmentation part        7.3489784 magnetization 

 Broyden mixing:
  rms(total) = 0.28721E-01    rms(broyden)= 0.28714E-01
  rms(prec ) = 0.77964E-01
  weight for this iteration     100.00

 eigenvalues of (default mixing * dielectric matrix)
  average eigenvalue GAMMA=   1.5344
  0.5883  1.0959  2.9190

 Free energy of the ion-electron system (eV)
  ---------------------------------------------------
  alpha Z        PSCENC =        27.38393840
  Ewald energy   TEWEN  =      -686.61584463
  -Hartree energ DENC   =      -593.42825420
  -exchange      EXHF   =         0.00000000
  -V(xc)+E(xc)   XCENC  =        41.78983131
  PAW double counting   =      1066.84270023    -1211.02759664
  entropy T*S    EENTRO =        -0.00406523
  eigenvalues    EBANDS =       -37.20575449
  atomic energy  EATOM  =      1390.97683016
  Solvation  Ediel_sol  =         0.00000000
  ---------------------------------------------------
  free energy    TOTEN  =        -1.28821509 eV

  energy without entropy =       -1.28414986  energy(sigma->0) =       -1.28686001


--------------------------------------------------------------------------------------------------------




--------------------------------------- Iteration      1(   9)  ---------------------------------------


    POTLOK:  cpu time    0.0036: real time    0.0037
    SETDIJ:  cpu time    0.0018: real time    0.0018
     EDDAV:  cpu time    0.1049: real time    0.1049
       DOS:  cpu time    0.0004: real time    0.0004
    CHARGE:  cpu time    0.0043: real time    0.0043
    MIXING:  cpu time    0.0004: real time    0.0004
    --------------------------------------------
      LOOP:  cpu time    0.1154: real time    0.1155

 eigenvalue-minimisations  :  1152
 total energy-change (2. order) : 0.1580701E-02  (-0.2729787E-02)
 number of electron      11.0000067 magnetization 
 augmentation part        7.3823568 magnetization 

 Broyden mixing:
  rms(total) = 0.95216E-02    rms(broyden)= 0.95158E-02
  rms(prec ) = 0.25242E-01
  weight for this iteration     100.00

 eigenvalues of (default mixing * dielectric matrix)
  average eigenvalue GAMMA=   1.8380
  0.5982  0.9072  2.9233  2.9233

 Free energy of the ion-electron system (eV)
  ---------------------------------------------------
  alpha Z        PSCENC =        27.38393840
  Ewald energy   TEWEN  =      -686.61584463
  -Hartree energ DENC   =      -592.11369664
  -exchange      EXHF   =         0.00000000
  -V(xc)+E(xc)   XCENC  =        41.73748011
  PAW double counting   =      1065.03946483    -1208.98119601
  entropy T*S    EENTRO =        -0.00431513
  eigenvalues    EBANDS =       -38.70929549
  atomic energy  EATOM  =      1390.97683016
  Solvation  Ediel_sol  =         0.00000000
  ---------------------------------------------------
  free energy    TOTEN  =        -1.28663439 eV

  energy without entropy =       -1.28231926  energy(sigma->0) =       -1.28519601


--------------------------------------------------------------------------------------------------------




--------------------------------------- Iteration      1(  10)  ---------------------------------------


    POTLOK:  cpu time    0.0037: real time    0.0038
    SETDIJ:  cpu time    0.0018: real time    0.0018
     EDDAV:  cpu time    0.1081: real time    0.1081
       DOS:  cpu time    0.0004: real time    0.0004
    CHARGE:  cpu time    0.0042: real time    0.0042
    MIXING:  cpu time    0.0004: real time    0.0004
    --------------------------------------------
      LOOP:  cpu time    0.1186: real time    0.1187

 eigenvalue-minimisations  :  1184
 total energy-change (2. order) : 0.1135030E-03  (-0.1981031E-03)
 number of electron      11.0000067 magnetization 
 augmentation part        7.3738643 magnetization 

 Broyden mixing:
  rms(total) = 0.11689E-02    rms(broyden)= 0.11677E-02
  rms(prec ) = 0.32774E-02
  weight for this iteration     100.00

 eigenvalues of (default mixing * dielectric matrix)
  average eigenvalue GAMMA=   1.8479
  3.6500  2.5831  0.5992  0.8836  1.5234

 Free energy of the ion-electron system (eV)
  ---------------------------------------------------
  alpha Z        PSCENC =        27.38393840
  Ewald energy   TEWEN  =      -686.61584463
  -Hartree energ DENC   =      -592.49401661
  -exchange      EXHF   =         0.00000000
  -V(xc)+E(xc)   XCENC  =        41.75366871
  PAW double counting   =      1066.42394634    -1210.37334689
  entropy T*S    EENTRO =        -0.00424700
  eigenvalues    EBANDS =       -38.33744938
  atomic energy  EATOM  =      1390.97683016
  Solvation  Ediel_sol  =         0.00000000
  ---------------------------------------------------
  free energy    TOTEN  =        -1.28652089 eV

  energy without entropy =       -1.28227388  energy(sigma->0) =       -1.28510522


--------------------------------------------------------------------------------------------------------




--------------------------------------- Iteration      1(  11)  ---------------------------------------


    POTLOK:  cpu time    0.0036: real time    0.0037
    SETDIJ:  cpu time    0.0018: real time    0.0018
     EDDAV:  cpu time    0.1315: real time    0.1315
       DOS:  cpu time    0.0004: real time    0.0004
    --------------------------------------------
      LOOP:  cpu time    0.1373: real time    0.1374

 eigenvalue-minimisations  :  1376
 total energy-change (2. order) :-0.2737632E-05  (-0.1755997E-05)
 number of electron      11.0000067 magnetization 
 augmentation part        7.3738643 magnetization 

 Free energy of the ion-electron system (eV)
  ---------------------------------------------------
  alpha Z        PSCENC =        27.38393840
  Ewald energy   TEWEN  =      -686.61584463
  -Hartree energ DENC   =      -592.48303924
  -exchange      EXHF   =         0.00000000
  -V(xc)+E(xc)   XCENC  =        41.75350832
  PAW double counting   =      1066.54588259    -1210.48035606
  entropy T*S    EENTRO =        -0.00425211
  eigenvalues    EBANDS =       -38.36319106
  atomic energy  EATOM  =      1390.97683016
  Solvation  Ediel_sol  =         0.00000000
  ---------------------------------------------------
  free energy    TOTEN  =        -1.28652362 eV

  energy without entropy =       -1.28227151  energy(sigma->0) =       -1.28510625


--------------------------------------------------------------------------------------------------------




 average (electrostatic) potential at core
  the test charge radii are     1.0053
  (the norm of the test charge is              1.0000)
       1 -44.5752
 
 
 
 E-fermi :  -2.2635     XC(G=0):  -6.4481     alpha+bet : -2.4379


 k-point     1 :       0.0000    0.0000    0.0000
  band No.  band energies     occupation 
      1      -5.2074      2.00000
      2      -3.6867      2.00000
      3      -3.6867      2.00000
      4      -3.3210      2.00000
      5      -3.3210      2.00000
      6      -3.3210      2.00000
      7       5.9949      0.00000
      8       5.9949      0.00000
      9       5.9949      0.00000
     10       8.0180      0.00000
     11       8.5044      0.00000
     12       8.5044      0.00000
     13      18.0707      0.00000
     14      18.0707      0.00000
     15      18.0708      0.00000
     16      18.8704      0.00000

 k-point     2 :       0.2500    0.0000    0.0000
  band No.  band energies     occupation 
      1      -4.5629      2.00000
      2      -3.6681      2.00000
      3      -3.5452      2.00000
      4      -3.3726      2.00000
      5      -3.3726      2.00000
      6      -3.3167      2.00000
      7       1.9308     -0.00000
      8       6.6586      0.00000
      9       6.6586      0.00000
     10       8.7757      0.00000
     11       9.1203      0.00000
     12      13.1535      0.00000
     13      14.0415      0.00000
     14      14.0415      0.00000
     15      14.4550      0.00000
     16      14.9570      0.00000

 k-point     3 :       0.5000    0.0000    0.0000
  band No.  band energies     occupation 
      1      -3.9015      2.00000
      2      -3.6495      2.00000
      3      -3.4227      2.00000
      4      -3.4227      2.00000
      5      -3.3123      2.00000
      6      -2.5707      2.05205
      7      -1.0799     -0.00000
      8       7.6806      0.00000
      9       7.6806      0.00000
     10      10.3993      0.00000
     11      10.7052      0.00000
     12      11.0302      0.00000
     13      11.4570      0.00000
     14      11.6746      0.00000
     15      11.6746      0.00000
     16      20.4601      0.00000

 k-point     4 :       0.0000    0.2500    0.0000
  band No.  band energies     occupation 
      1      -4.5629      2.00000
      2      -3.6681      2.00000
      3      -3.5452      2.00000
      4      -3.3726      2.00000
      5      -3.3726      2.00000
      6      -3.3167      2.00000
      7       1.9308     -0.00000
      8       6.6586      0.00000
      9       6.6586      0.00000
     10       8.7757      0.00000
     11       9.1203      0.00000
     12      13.1535      0.00000
     13      14.0415      0.00000
     14      14.0415      0.00000
     15      14.4550      0.00000
     16      14.9570      0.00000

 k-point     5 :       0.2500    0.2500    0.0000
  band No.  band energies     occupation 
      1      -3.9714      2.00000
      2      -3.5608      2.00000
      3      -3.5091      2.00000
      4      -3.3710      2.00000
      5      -3.3691      2.00000
      6      -3.3629      2.00000
      7       2.5273     -0.00000
      8       2.6901     -0.00000
      9       7.3165      0.00000
     10       8.8549      0.00000
     11       9.7404      0.00000
     12      14.1431      0.00000
     13      14.2294      0.00000
     14      14.3005      0.00000
     15      14.9450      0.00000
     16      15.1883      0.00000

 k-point     6 :       0.5000    0.2500    0.0000
  band No.  band energies     occupation 
      1      -3.6937      2.00000
      2      -3.5507      2.00000
      3      -3.4671      2.00000
      4      -3.4140      2.00000
      5      -3.3594      2.00000
      6      -2.1740      0.32043
      7      -0.3421     -0.00000
      8       3.8476      0.00000
      9       6.3911      0.00000
     10       8.3255      0.00000
     11      11.4505      0.00000
     12      11.6590      0.00000
     13      12.3206      0.00000
     14      15.4717      0.00000
     15      16.2028      0.00000
     16      17.3378      0.00000

 k-point     7 :      -0.2500    0.2500    0.0000
  band No.  band energies     occupation 
      1      -3.9714      2.00000
      2      -3.5608      2.00000
      3      -3.5091      2.00000
      4      -3.3710      2.00000
      5      -3.3691      2.00000
      6      -3.3629      2.00000
      7       2.5273     -0.00000
      8       2.6901     -0.00000
      9       7.3165      0.00000
     10       8.8549      0.00000
     11       9.7404      0.00000
     12      14.1431      0.00000
     13      14.2294      0.00000
     14      14.3005      0.00000
     15      14.9450      0.00000
     16      15.1883      0.00000

 k-point     8 :       0.0000    0.5000    0.0000
  band No.  band energies     occupation 
      1      -3.9015      2.00000
      2      -3.6495      2.00000
      3      -3.4227      2.00000
      4      -3.4227      2.00000
      5      -3.3123      2.00000
      6      -2.5707      2.05205
      7      -1.0799     -0.00000
      8       7.6806      0.00000
      9       7.6806      0.00000
     10      10.3993      0.00000
     11      10.7052      0.00000
     12      11.0302      0.00000
     13      11.4570      0.00000
     14      11.6746      0.00000
     15      11.6746      0.00000
     16      20.4601      0.00000

 k-point     9 :       0.2500    0.5000    0.0000
  band No.  band energies     occupation 
      1      -3.6937      2.00000
      2      -3.5507      2.00000
      3      -3.4671      2.00000
      4      -3.4140      2.00000
      5      -3.3594      2.00000
      6      -2.1740      0.32043
      7      -0.3421     -0.00000
      8       3.8476      0.00000
      9       6.3911      0.00000
     10       8.3255      0.00000
     11      11.4505      0.00000
     12      11.6590      0.00000
     13      12.3206      0.00000
     14      15.4717      0.00000
     15      16.2028      0.00000
     16      17.3378      0.00000

 k-point    10 :       0.5000    0.5000    0.0000
  band No.  band energies     occupation 
      1      -3.6505      2.00000
      2      -3.6448      2.00000
      3      -3.4054      2.00000
      4      -3.4054      2.00000
      5      -3.2485      2.00000
      6      -0.8153     -0.00000
      7       0.8335     -0.00000
      8       0.8335     -0.00000
      9       3.9050      0.00000
     10       9.2658      0.00000
     11      13.0273      0.00000
     12      13.0273      0.00000
     13      13.5675      0.00000
     14      13.9246      0.00000
     15      13.9246      0.00000
     16      14.8042      0.00000

 k-point    11 :       0.0000    0.0000    0.2500
  band No.  band energies     occupation 
      1      -4.5629      2.00000
      2      -3.6681      2.00000
      3      -3.5452      2.00000
      4      -3.3726      2.00000
      5      -3.3726      2.00000
      6      -3.3167      2.00000
      7       1.9308     -0.00000
      8       6.6586      0.00000
      9       6.6586      0.00000
     10       8.7757      0.00000
     11       9.1203      0.00000
     12      13.1535      0.00000
     13      14.0415      0.00000
     14      14.0415      0.00000
     15      14.4550      0.00000
     16      14.9570      0.00000

 k-point    12 :       0.2500    0.0000    0.2500
  band No.  band energies     occupation 
      1      -3.9714      2.00000
      2      -3.5608      2.00000
      3      -3.5091      2.00000
      4      -3.3710      2.00000
      5      -3.3691      2.00000
      6      -3.3629      2.00000
      7       2.5273     -0.00000
      8       2.6901     -0.00000
      9       7.3165      0.00000
     10       8.8549      0.00000
     11       9.7404      0.00000
     12      14.1431      0.00000
     13      14.2294      0.00000
     14      14.3005      0.00000
     15      14.9450      0.00000
     16      15.1883      0.00000

 k-point    13 :       0.5000    0.0000    0.2500
  band No.  band energies     occupation 
      1      -3.6937      2.00000
      2      -3.5507      2.00000
      3      -3.4671      2.00000
      4      -3.4140      2.00000
      5      -3.3594      2.00000
      6      -2.1740      0.32044
      7      -0.3421     -0.00000
      8       3.8476      0.00000
      9       6.3911      0.00000
     10       8.3255      0.00000
     11      11.4505      0.00000
     12      11.6590      0.00000
     13      12.3206      0.00000
     14      15.4717      0.00000
     15      16.2028      0.00000
     16      17.3378      0.00000

 k-point    14 :      -0.2500    0.0000    0.2500
  band No.  band energies     occupation 
      1      -3.9714      2.00000
      2      -3.5608      2.00000
      3      -3.5091      2.00000
      4      -3.3710      2.00000
      5      -3.3691      2.00000
      6      -3.3629      2.00000
      7       2.5273     -0.00000
      8       2.6901     -0.00000
      9       7.3165      0.00000
     10       8.8549      0.00000
     11       9.7404      0.00000
     12      14.1431      0.00000
     13      14.2294      0.00000
     14      14.3005      0.00000
     15      14.9450      0.00000
     16      15.1883      0.00000

 k-point    15 :       0.0000    0.2500    0.2500
  band No.  band energies     occupation 
      1      -3.9714      2.00000
      2      -3.5608      2.00000
      3      -3.5091      2.00000
      4      -3.3710      2.00000
      5      -3.3691      2.00000
      6      -3.3629      2.00000
      7       2.5273     -0.00000
      8       2.6901     -0.00000
      9       7.3165      0.00000
     10       8.8549      0.00000
     11       9.7404      0.00000
     12      14.1431      0.00000
     13      14.2294      0.00000
     14      14.3005      0.00000
     15      14.9450      0.00000
     16      15.1883      0.00000

 k-point    16 :       0.2500    0.2500    0.2500
  band No.  band energies     occupation 
      1      -3.5682      2.00000
      2      -3.5000      2.00000
      3      -3.5000      2.00000
      4      -3.4269      2.00000
      5      -3.4269      2.00000
      6      -3.0362      2.00000
      7       3.1998      0.00000
      8       3.1998      0.00000
      9       3.4443      0.00000
     10       9.1488      0.00000
     11       9.9926      0.00000
     12       9.9926      0.00000
     13      15.1471      0.00000
     14      15.2460      0.00000
     15      15.2460      0.00000
     16      16.4360      0.00000

 k-point    17 :       0.5000    0.2500    0.2500
  band No.  band energies     occupation 
      1      -3.5478      2.00000
      2      -3.5038      2.00000
      3      -3.4742      2.00000
      4      -3.4641      2.00000
      5      -3.3830      2.00000
      6      -1.6460     -0.00011
      7       0.3686     -0.00000
      8       4.3075      0.00000
      9       4.7373      0.00000
     10       6.6666      0.00000
     11       7.5394      0.00000
     12      11.1170      0.00000
     13      12.9396      0.00000
     14      16.5642      0.00000
     15      17.3365      0.00000
     16      18.2338      0.00000

 k-point    18 :      -0.2500    0.2500    0.2500
  band No.  band energies     occupation 
      1      -3.5682      2.00000
      2      -3.5000      2.00000
      3      -3.5000      2.00000
      4      -3.4269      2.00000
      5      -3.4269      2.00000
      6      -3.0362      2.00000
      7       3.1998      0.00000
      8       3.1998      0.00000
      9       3.4443      0.00000
     10       9.1488      0.00000
     11       9.9926      0.00000
     12       9.9926      0.00000
     13      15.1471      0.00000
     14      15.2460      0.00000
     15      15.2460      0.00000
     16      16.4360      0.00000

 k-point    19 :       0.0000    0.5000    0.2500
  band No.  band energies     occupation 
      1      -3.6937      2.00000
      2      -3.5507      2.00000
      3      -3.4671      2.00000
      4      -3.4140      2.00000
      5      -3.3594      2.00000
      6      -2.1740      0.32043
      7      -0.3421     -0.00000
      8       3.8476      0.00000
      9       6.3911      0.00000
     10       8.3255      0.00000
     11      11.4505      0.00000
     12      11.6590      0.00000
     13      12.3206      0.00000
     14      15.4717      0.00000
     15      16.2028      0.00000
     16      17.3378      0.00000

 k-point    20 :       0.2500    0.5000    0.2500
  band No.  band energies     occupation 
      1      -3.5478      2.00000
      2      -3.5038      2.00000
      3      -3.4742      2.00000
      4      -3.4641      2.00000
      5      -3.3830      2.00000
      6      -1.6460     -0.00011
      7       0.3686     -0.00000
      8       4.3075      0.00000
      9       4.7373      0.00000
     10       6.6666      0.00000
     11       7.5394      0.00000
     12      11.1170      0.00000
     13      12.9396      0.00000
     14      16.5642      0.00000
     15      17.3365      0.00000
     16      18.2338      0.00000

 k-point    21 :       0.5000    0.5000    0.2500
  band No.  band energies     occupation 
      1      -3.6195      2.00000
      2      -3.5025      2.00000
      3      -3.5025      2.00000
      4      -3.4341      2.00000
      5      -3.2457      2.00000
      6      -0.2555     -0.00000
      7       1.5309     -0.00000
      8       1.5309     -0.00000
      9       4.5445      0.00000
     10       5.6993      0.00000
     11       8.6477      0.00000
     12       8.6477      0.00000
     13      10.0384      0.00000
     14      18.4104      0.00000
     15      19.8107      0.00000
     16      19.8107      0.00000

 k-point    22 :      -0.2500    0.5000    0.2500
  band No.  band energies     occupation 
      1      -3.5478      2.00000
      2      -3.5038      2.00000
      3      -3.4742      2.00000
      4      -3.4641      2.00000
      5      -3.3830      2.00000
      6      -1.6460     -0.00011
      7       0.3686     -0.00000
      8       4.3075      0.00000
      9       4.7373      0.00000
     10       6.6666      0.00000
     11       7.5394      0.00000
     12      11.1170      0.00000
     13      12.9396      0.00000
     14      16.5642      0.00000
     15      17.3365      0.00000
     16      18.2338      0.00000

 k-point    23 :       0.0000   -0.2500    0.2500
  band No.  band energies     occupation 
      1      -3.9714      2.00000
      2      -3.5608      2.00000
      3      -3.5091      2.00000
      4      -3.3710      2.00000
      5      -3.3691      2.00000
      6      -3.3629      2.00000
      7       2.5273     -0.00000
      8       2.6901     -0.00000
      9       7.3165      0.00000
     10       8.8549      0.00000
     11       9.7404      0.00000
     12      14.1431      0.00000
     13      14.2294      0.00000
     14      14.3005      0.00000
     15      14.9450      0.00000
     16      15.1883      0.00000

 k-point    24 :       0.2500   -0.2500    0.2500
  band No.  band energies     occupation 
      1      -3.5682      2.00000
      2      -3.5000      2.00000
      3      -3.5000      2.00000
      4      -3.4269      2.00000
      5      -3.4269      2.00000
      6      -3.0362      2.00000
      7       3.1998      0.00000
      8       3.1998      0.00000
      9       3.4443      0.00000
     10       9.1488      0.00000
     11       9.9926      0.00000
     12       9.9926      0.00000
     13      15.1471      0.00000
     14      15.2460      0.00000
     15      15.2460      0.00000
     16      16.4360      0.00000

 k-point    25 :       0.5000   -0.2500    0.2500
  band No.  band energies     occupation 
      1      -3.5478      2.00000
      2      -3.5038      2.00000
      3      -3.4742      2.00000
      4      -3.4641      2.00000
      5      -3.3830      2.00000
      6      -1.6460     -0.00011
      7       0.3686     -0.00000
      8       4.3075      0.00000
      9       4.7373      0.00000
     10       6.6666      0.00000
     11       7.5394      0.00000
     12      11.1170      0.00000
     13      12.9396      0.00000
     14      16.5642      0.00000
     15      17.3365      0.00000
     16      18.2338      0.00000

 k-point    26 :      -0.2500   -0.2500    0.2500
  band No.  band energies     occupation 
      1      -3.5682      2.00000
      2      -3.5000      2.00000
      3      -3.5000      2.00000
      4      -3.4269      2.00000
      5      -3.4269      2.00000
      6      -3.0362      2.00000
      7       3.1998      0.00000
      8       3.1998      0.00000
      9       3.4443      0.00000
     10       9.1488      0.00000
     11       9.9926      0.00000
     12       9.9926      0.00000
     13      15.1471      0.00000
     14      15.2460      0.00000
     15      15.2460      0.00000
     16      16.4360      0.00000

 k-point    27 :       0.0000    0.0000    0.5000
  band No.  band energies     occupation 
      1      -3.9015      2.00000
      2      -3.6495      2.00000
      3      -3.4227      2.00000
      4      -3.4227      2.00000
      5      -3.3123      2.00000
      6      -2.5707      2.05205
      7      -1.0799     -0.00000
      8       7.6806      0.00000
      9       7.6806      0.00000
     10      10.3993      0.00000
     11      10.7052      0.00000
     12      11.0302      0.00000
     13      11.4570      0.00000
     14      11.6746      0.00000
     15      11.6746      0.00000
     16      20.4601      0.00000

 k-point    28 :       0.2500    0.0000    0.5000
  band No.  band energies     occupation 
      1      -3.6937      2.00000
      2      -3.5507      2.00000
      3      -3.4671      2.00000
      4      -3.4140      2.00000
      5      -3.3594      2.00000
      6      -2.1740      0.32044
      7      -0.3421     -0.00000
      8       3.8476      0.00000
      9       6.3911      0.00000
     10       8.3255      0.00000
     11      11.4505      0.00000
     12      11.6590      0.00000
     13      12.3206      0.00000
     14      15.4717      0.00000
     15      16.2028      0.00000
     16      17.3378      0.00000

 k-point    29 :       0.5000    0.0000    0.5000
  band No.  band energies     occupation 
      1      -3.6505      2.00000
      2      -3.6448      2.00000
      3      -3.4054      2.00000
      4      -3.4054      2.00000
      5      -3.2485      2.00000
      6      -0.8153     -0.00000
      7       0.8335     -0.00000
      8       0.8335     -0.00000
      9       3.9050      0.00000
     10       9.2658      0.00000
     11      13.0273      0.00000
     12      13.0273      0.00000
     13      13.5675      0.00000
     14      13.9246      0.00000
     15      13.9246      0.00000
     16      14.8042      0.00000

 k-point    30 :       0.0000    0.2500    0.5000
  band No.  band energies     occupation 
      1      -3.6937      2.00000
      2      -3.5507      2.00000
      3      -3.4671      2.00000
      4      -3.4140      2.00000
      5      -3.3594      2.00000
      6      -2.1740      0.32044
      7      -0.3421     -0.00000
      8       3.8476      0.00000
      9       6.3911      0.00000
     10       8.3255      0.00000
     11      11.4505      0.00000
     12      11.6590      0.00000
     13      12.3206      0.00000
     14      15.4717      0.00000
     15      16.2028      0.00000
     16      17.3378      0.00000

 k-point    31 :       0.2500    0.2500    0.5000
  band No.  band energies     occupation 
      1      -3.5478      2.00000
      2      -3.5038      2.00000
      3      -3.4742      2.00000
      4      -3.4641      2.00000
      5      -3.3830      2.00000
      6      -1.6460     -0.00011
      7       0.3686     -0.00000
      8       4.3075      0.00000
      9       4.7373      0.00000
     10       6.6666      0.00000
     11       7.5394      0.00000
     12      11.1170      0.00000
     13      12.9396      0.00000
     14      16.5642      0.00000
     15      17.3365      0.00000
     16      18.2338      0.00000

 k-point    32 :       0.5000    0.2500    0.5000
  band No.  band energies     occupation 
      1      -3.6195      2.00000
      2      -3.5025      2.00000
      3      -3.5025      2.00000
      4      -3.4341      2.00000
      5      -3.2457      2.00000
      6      -0.2555     -0.00000
      7       1.5309     -0.00000
      8       1.5309     -0.00000
      9       4.5445      0.00000
     10       5.6993      0.00000
     11       8.6477      0.00000
     12       8.6477      0.00000
     13      10.0384      0.00000
     14      18.4104      0.00000
     15      19.8107      0.00000
     16      19.8107      0.00000

 k-point    33 :      -0.2500    0.2500    0.5000
  band No.  band energies     occupation 
      1      -3.5478      2.00000
      2      -3.5038      2.00000
      3      -3.4742      2.00000
      4      -3.4641      2.00000
      5      -3.3830      2.00000
      6      -1.6460     -0.00011
      7       0.3686     -0.00000
      8       4.3075      0.00000
      9       4.7373      0.00000
     10       6.6666      0.00000
     11       7.5394      0.00000
     12      11.1170      0.00000
     13      12.9396      0.00000
     14      16.5642      0.00000
     15      17.3365      0.00000
     16      18.2338      0.00000

 k-point    34 :       0.0000    0.5000    0.5000
  band No.  band energies     occupation 
      1      -3.6505      2.00000
      2      -3.6448      2.00000
      3      -3.4054      2.00000
      4      -3.4054      2.00000
      5      -3.2485      2.00000
      6      -0.8153     -0.00000
      7       0.8335     -0.00000
      8       0.8335     -0.00000
      9       3.9050      0.00000
     10       9.2658      0.00000
     11      13.0273      0.00000
     12      13.0273      0.00000
     13      13.5675      0.00000
     14      13.9246      0.00000
     15      13.9246      0.00000
     16      14.8042      0.00000

 k-point    35 :       0.2500    0.5000    0.5000
  band No.  band energies     occupation 
      1      -3.6195      2.00000
      2      -3.5025      2.00000
      3      -3.5025      2.00000
      4      -3.4341      2.00000
      5      -3.2457      2.00000
      6      -0.2555     -0.00000
      7       1.5309     -0.00000
      8       1.5309     -0.00000
      9       4.5445      0.00000
     10       5.6993      0.00000
     11       8.6477      0.00000
     12       8.6477      0.00000
     13      10.0384      0.00000
     14      18.4104      0.00000
     15      19.8107      0.00000
     16      19.8107      0.00000

 k-point    36 :       0.5000    0.5000    0.5000
  band No.  band energies     occupation 
      1      -3.5888      2.00000
      2      -3.5888      2.00000
      3      -3.5888      2.00000
      4      -3.2429      2.00000
      5      -3.2429      2.00000
      6       1.2389     -0.00000
      7       2.6064     -0.00000
      8       2.6064     -0.00000
      9       2.6064     -0.00000
     10       6.2549      0.00000
     11       6.2549      0.00000
     12       6.2549      0.00000
     13       6.8739      0.00000
     14      24.9037      0.00000
     15      24.9037      0.00000
     16      24.9037      0.00000


--------------------------------------------------------------------------------------------------------


 soft charge-density along one line, spin component           1
         0         1         2         3         4         5         6         7         8         9
 total charge-density along one line
 
 pseudopotential strength for first ion, spin component:           1
 -9.742   0.000  -0.000   0.000  -0.000   0.000  -0.000   0.000   0.000   0.000   1.214   0.000   0.000   0.000   0.000   0.000
 -0.000   0.000  -9.742   0.000  -0.000   0.000   0.000   0.000   0.000   0.000   0.000   0.000   1.214   0.000   0.000   0.000
 -0.000   0.000  -0.000   0.000  -9.760   0.000  -0.000   0.000   0.000   0.000   0.000   0.000   0.000   0.000   1.223   0.000
 -0.000   0.000   0.000   0.000  -0.000   0.000  -9.742   0.000  -0.000   0.000   0.000   0.000  -0.000   0.000   0.000   0.000
  0.000   0.000   0.000   0.000   0.000   0.000  -0.000   0.000  -9.760   0.000  -0.000   0.000  -0.000   0.000  -0.000   0.000
  1.214   0.000   0.000   0.000   0.000   0.000   0.000   0.000  -0.000   0.000   1.029   0.000  -0.000   0.000  -0.000   0.000
  0.000   0.000   1.214   0.000   0.000   0.000  -0.000   0.000  -0.000   0.000  -0.000   0.000   1.029   0.000  -0.000   0.000
  0.000   0.000   0.000   0.000   1.223   0.000   0.000   0.000  -0.000   0.000  -0.000   0.000  -0.000   0.000   1.025   0.000
  0.000   0.000  -0.000   0.000   0.000   0.000   1.214   0.000   0.000   0.000  -0.000   0.000   0.000   0.000  -0.000   0.000
 -0.000   0.000  -0.000   0.000  -0.000   0.000   0.000   0.000   1.223   0.000   0.000   0.000   0.000   0.000   0.000   0.000
 -0.000   0.000   0.000   0.000  -0.000   0.000   0.000   0.000   0.000   0.000   0.000   0.000  -0.000   0.000   0.000   0.000
  0.000   0.000  -0.000   0.000  -0.000   0.000  -0.000   0.000  -0.000   0.000  -0.000   0.000   0.000   0.000   0.000   0.000
  0.000   0.000   0.000   0.000   0.000   0.000   0.000   0.000   0.000   0.000  -0.000   0.000  -0.000   0.000  -0.000   0.000
  0.000   0.000  -0.000   0.000   0.000   0.000   0.000   0.000  -0.000   0.000  -0.000   0.000   0.000   0.000  -0.000   0.000
 -0.000   0.000   0.000   0.000  -0.000   0.000   0.000   0.000   0.000   0.000   0.000   0.000  -0.000   0.000   0.000   0.000
 -0.000   0.000   0.000   0.000  -0.000   0.000   0.000   0.000  -0.000   0.000   0.000   0.000  -0.000   0.000   0.000   0.000
  0.000   0.000   0.000   0.000   0.000   0.000  -0.000   0.000  -0.000   0.000   0.000   0.000  -0.000   0.000  -0.000   0.000
  0.000   0.000   0.000   0.000   0.000   0.000   0.000   0.000  -0.000   0.000  -0.000   0.000   0.000   0.000  -0.000   0.000
 total augmentation occupancy for first ion, spin component:           1
  1.974   0.000   0.000  -0.000   0.000  -0.045   0.000   0.000  -0.000  -0.000   0.000  -0.000   0.000  -0.000   0.000   0.000
  0.000   1.974   0.000   0.000  -0.000   0.000  -0.045   0.000   0.000  -0.000  -0.000   0.000  -0.000   0.000   0.000  -0.000
  0.000   0.000   1.931  -0.000  -0.000   0.000   0.000  -0.030  -0.000   0.000   0.000   0.000   0.000  -0.000   0.000  -0.000
 -0.000   0.000  -0.000   1.974   0.000  -0.000   0.000   0.000  -0.045  -0.000  -0.000  -0.000   0.000  -0.000  -0.000  -0.000
  0.000  -0.000  -0.000   0.000   1.931   0.000  -0.000  -0.000   0.000  -0.030  -0.000   0.000   0.000   0.000  -0.000  -0.000
 -0.045   0.000   0.000  -0.000   0.000   0.002   0.000  -0.000   0.000   0.000  -0.000   0.000   0.000   0.000   0.000   0.000
  0.000  -0.045   0.000   0.000  -0.000   0.000   0.002  -0.000   0.000   0.000   0.000   0.000   0.000  -0.000   0.000   0.000
  0.000   0.000  -0.030   0.000  -0.000  -0.000  -0.000   0.003   0.000   0.000   0.000  -0.000  -0.000   0.000  -0.000  -0.000
 -0.000   0.000  -0.000  -0.045   0.000   0.000   0.000   0.000   0.002  -0.000  -0.000  -0.000   0.000  -0.000   0.000   0.000
 -0.000  -0.000   0.000  -0.000  -0.030   0.000   0.000   0.000  -0.000   0.003   0.000  -0.000  -0.000   0.000   0.000   0.000
  0.000  -0.000   0.000  -0.000  -0.000  -0.000   0.000   0.000  -0.000   0.000   0.921  -0.054   0.000  -0.000   0.000  -0.000
 -0.000   0.000   0.000  -0.000   0.000   0.000   0.000  -0.000  -0.000  -0.000  -0.054   0.007  -0.000   0.000   0.000   0.000
  0.000  -0.000   0.000   0.000   0.000   0.000   0.000  -0.000   0.000  -0.000   0.000  -0.000   0.011   0.000  -0.000  -0.001
 -0.000   0.000  -0.000  -0.000   0.000   0.000  -0.000   0.000  -0.000   0.000  -0.000   0.000   0.000   0.011   0.000   0.000
  0.000   0.000   0.000  -0.000  -0.000   0.000   0.000  -0.000   0.000   0.000   0.000   0.000  -0.000   0.000   0.011  -0.000
  0.000  -0.000  -0.000  -0.000  -0.000   0.000   0.000  -0.000   0.000   0.000  -0.000   0.000  -0.001   0.000  -0.000   0.000
 -0.000   0.000  -0.000  -0.000   0.000   0.000  -0.000   0.000   0.000   0.000  -0.000   0.000   0.000  -0.001  -0.000  -0.000
 -0.000  -0.000   0.000  -0.000  -0.000   0.000   0.000  -0.000   0.000   0.000   0.000  -0.000  -0.000  -0.000  -0.001   0.000


------------------------ aborting loop because EDIFF is reached ----------------------------------------


    CHARGE:  cpu time    0.0043: real time    0.0043
    FORLOC:  cpu time    0.0002: real time    0.0002
    FORNL :  cpu time    0.0250: real time    0.0250
    STRESS:  cpu time    0.0673: real time    0.0673
    FORCOR:  cpu time    0.0037: real time    0.0037
    FORHAR:  cpu time    0.0010: real time    0.0010
    MIXING:  cpu time    0.0005: real time    0.0006
    OFIELD:  cpu time    0.0000: real time    0.0000

  FORCE on cell =-STRESS in cart. coord.  units (eV):
  Direction    XX          YY          ZZ          XY          YZ          ZX
  --------------------------------------------------------------------------------------
  Alpha Z    27.38394    27.38394    27.38394
  Ewald    -228.87195  -228.87195  -228.87195     0.00000     0.00000     0.00000
  Hartree   197.45606   197.45607   197.45607     0.00000    -0.00000     0.00000
  E(xc)     -62.08758   -62.08758   -62.08758     0.00000    -0.00000    -0.00000
  Local     -24.32963   -24.32964   -24.32964    -0.00000     0.00000    -0.00000
  n-local   -42.66138   -42.66137   -42.66139    -0.00000     0.00000    -0.00000
  augment    53.64549    53.64549    53.64548     0.00000    -0.00000    -0.00000
  Kinetic    77.78155    77.78154    77.78155    -0.00000     0.00000    -0.00000
  Fock        0.00000     0.00000     0.00000     0.00000     0.00000     0.00000
  -------------------------------------------------------------------------------------
  Total      -1.68350    -1.68350    -1.68350     0.00000     0.00000    -0.00000
  in kB     -57.81176   -57.81170   -57.81191     0.00001     0.00004    -0.00008
  external pressure =      -57.81 kB  Pullay stress =        0.00 kB


 VOLUME and BASIS-vectors are now :
 -----------------------------------------------------------------------------
  energy-cutoff  :      500.00
  volume of cell :       46.66
      direct lattice vectors                 reciprocal lattice vectors
     3.600000000  0.000000000  0.000000000     0.277777778  0.000000000  0.000000000
     0.000000000  3.600000000  0.000000000     0.000000000  0.277777778  0.000000000
     0.000000000  0.000000000  3.600000000     0.000000000  0.000000000  0.277777778

  length of vectors
     3.600000000  3.600000000  3.600000000     0.277777778  0.277777778  0.277777778


 FORCES acting on ions
    electron-ion (+dipol)            ewald-force                    non-local-force                 convergence-correction
 -----------------------------------------------------------------------------------------------
   -.233E-05 0.121E-04 -.104E-04   -.786E-15 -.503E-15 -.700E-15   0.159E-04 0.571E-05 -.608E-05   -.109E-04 -.178E-04 0.176E-04
 -----------------------------------------------------------------------------------------------
   -.233E-05 0.121E-04 -.104E-04   -.786E-15 -.503E-15 -.700E-15   0.159E-04 0.571E-05 -.608E-05   -.109E-04 -.178E-04 0.176E-04
 
 
 POSITION                                       TOTAL-FORCE (eV/Angst)
 -----------------------------------------------------------------------------------
      0.00000      0.00000      0.00000         0.000003     -0.000000      0.000001
 -----------------------------------------------------------------------------------
    total drift:                                0.000003     -0.000000      0.000001


--------------------------------------------------------------------------------------------------------



  FREE ENERGIE OF THE ION-ELECTRON SYSTEM (eV)
  ---------------------------------------------------
  free  energy   TOTEN  =        -1.28652362 eV

  energy  without entropy=       -1.28227151  energy(sigma->0) =       -1.28510625
 


--------------------------------------------------------------------------------------------------------


    POTLOK:  cpu time    0.0059: real time    0.0059


--------------------------------------------------------------------------------------------------------




--------------------------------------------------------------------------------------------------------


  
 reached required accuracy - stopping structural energy minimisation
 writing wavefunctions
     LOOP+:  cpu time    1.6723: real time    1.6732
    4ORBIT:  cpu time    0.0000: real time    0.0000

 total amount of memory used by VASP MPI-rank0    32073. kBytes
=======================================================================

   base      :      30000. kBytes
   nonlr-proj:        327. kBytes
   fftplans  :        373. kBytes
   grid      :        640. kBytes
   one-center:         15. kBytes
   wavefun   :        718. kBytes
 
  
  
 General timing and accounting informations for this job:
 ========================================================
  
                  Total CPU time used (sec):        2.276
                            User time (sec):        2.158
                          System time (sec):        0.118
                         Elapsed time (sec):        2.274
  
                   Maximum memory used (kb):       34148.
                   Average memory used (kb):           0.
  
                          Minor page faults:        10075
                          Major page faults:            0
                 Voluntary context switches:          149
