2
 energy: -0.982686154800 gnorm: 0.000146835228 xtb: 6.4.1 (a3dbbd7)
H         0.00000000000000    0.00000000000000   -0.01636626861975
H         0.00000000000000    0.00000000000000    0.76053626861975
