128
 energy: -284.282821209641 gnorm: 0.000315740758 xtb: 6.4.1 (a3dbbd7)
C        -1.77779800000000   -1.69979900000000    2.72616800000000
C        -0.54662000000000   -2.68468700000000    2.51516300000000
C        -0.85292200000000   -3.36624500000000    1.12192900000000
C        -2.26428200000000   -1.46904400000000    1.32031500000000
C        -1.79482800000000   -2.38517700000000    0.48718500000000
C        -3.47731100000000   -0.63724100000000    1.07105700000000
C        -3.33966400000000    0.78241800000000    1.70842500000000
C        -1.54902500000000   -0.39848300000000    3.54488300000000
C        -2.28086300000000    0.88822100000000    2.89363500000000
C        -0.02742800000000    0.09329000000000    3.76018800000000
C         0.72174700000000   -1.92620100000000    2.43282500000000
C         1.12002000000000   -0.90955100000000    3.46460300000000
C         1.66080500000000   -2.11388400000000    1.50646600000000
C         0.30888700000000   -3.68090200000000    0.10474300000000
C         1.74608800000000   -3.18984400000000    0.49123600000000
C         0.06858700000000   -2.96113300000000   -1.21586500000000
C        -2.35874200000000   -2.62335700000000   -0.87185800000000
C        -1.24979200000000   -2.99711300000000   -1.92312100000000
C        -3.70380800000000   -0.39231600000000   -0.46166300000000
C        -2.85006600000000   -1.28136600000000   -1.32077000000000
C        -2.97997900000000    1.64155400000000    0.49155600000000
C        -3.18326500000000    1.01254400000000   -0.65105000000000
C        -2.37872300000000    3.01071300000000    0.62748800000000
C        -1.12527000000000    1.67843200000000    2.36465500000000
C         0.09203600000000    1.23373000000000    2.82297100000000
C        -1.16100700000000    2.66021900000000    1.41070800000000
C         1.25267900000000    1.74308100000000    2.31016700000000
C         2.51024400000000   -0.30803000000000    2.85242800000000
C         2.61467000000000   -1.04521300000000    1.55789300000000
C         2.61900000000000    1.23510000000000    2.58759400000000
C         3.27595500000000   -0.66299100000000    0.48169200000000
C         2.38523400000000   -2.69618100000000   -0.85012900000000
C         1.17211100000000   -2.39454100000000   -1.68099100000000
C         3.41715200000000   -1.53211000000000   -0.74805900000000
C         1.35210800000000   -1.86885100000000   -3.05522500000000
C        -1.37476000000000   -1.91976600000000   -3.07053100000000
C        -2.26342600000000   -0.85338300000000   -2.42888100000000
C        -0.01924500000000   -1.35027700000000   -3.65829400000000
C        -3.03480200000000    1.60538400000000   -2.01179100000000
C        -2.41716500000000    0.52966200000000   -3.00691500000000
C        -1.81152900000000    3.66817700000000   -0.70526300000000
C        -2.03866700000000    2.83828000000000   -2.03905100000000
C         0.00066600000000    3.15702200000000    0.86374900000000
C         1.20972100000000    2.70008100000000    1.31904900000000
C        -0.24510400000000    4.01856600000000   -0.32599500000000
C         3.46659300000000    1.77970200000000    1.30657100000000
C         3.90945500000000    0.68744700000000    0.25845100000000
C         2.54861200000000    3.00721100000000    0.75267600000000
C         3.40966900000000   -0.45470400000000   -1.92317900000000
C         2.32362800000000   -0.61362200000000   -3.06600100000000
C         3.30461300000000    0.86260800000000   -1.12031900000000
C         0.05500100000000    0.11813300000000   -3.36469900000000
C        -0.98976200000000    0.97592700000000   -3.11260400000000
C        -0.76665900000000    2.20593100000000   -2.50847800000000
C         1.33646100000000    0.50200000000000   -3.03425700000000
C         0.91364700000000    3.74281200000000   -1.34445000000000
C         2.38790700000000    3.22956500000000   -0.78213500000000
C         2.60223500000000    1.92333400000000   -1.50604300000000
C         0.50977100000000    2.60878300000000   -2.22481500000000
C         1.55712100000000    1.72850500000000   -2.46517900000000
O        -2.82091600000000   -2.44744600000000    3.33799800000000
H        -2.81041100000000   -2.20402400000000    4.28210800000000
O        -4.58925900000000    1.21342000000000    2.17113500000000
H        -5.14665700000000    0.42506200000000    2.28943900000000
O        -0.47212400000000   -3.62008100000000    3.54738400000000
H        -1.23153500000000   -4.21602200000000    3.44156600000000
O        -2.88571600000000    1.53517700000000    3.97908500000000
H        -3.46349200000000    2.22780100000000    3.62750800000000
O        -2.09225300000000   -0.65268700000000    4.80447300000000
H        -1.84327300000000    0.10217400000000    5.36517100000000
O        -1.58737300000000   -4.54930400000000    1.35583500000000
H        -1.05190800000000   -5.26762900000000    0.95154200000000
O        -4.60124200000000   -1.30475900000000    1.60430200000000
H        -4.28274600000000   -1.86753200000000    2.33842000000000
O        -3.33742700000000   -3.63664400000000   -0.81348400000000
H        -3.19467700000000   -4.13800200000000    0.00730000000000
O         0.34461200000000   -5.06771600000000   -0.09662800000000
H         1.21710600000000   -5.35815300000000    0.24418200000000
O         2.47107500000000   -4.26982400000000    1.01957500000000
H         3.27980300000000   -4.35685200000000    0.48793800000000
O         3.01555400000000   -3.83579100000000   -1.38701100000000
H         3.27917900000000   -3.64885300000000   -2.29776700000000
O        -1.50259500000000   -4.26121000000000   -2.46839400000000
H        -2.32001600000000   -4.58754200000000   -2.03862300000000
O         1.88145000000000   -2.90970800000000   -3.82805700000000
H         1.51764300000000   -2.81403200000000   -4.72558200000000
O         4.66678700000000   -2.16245700000000   -0.67941500000000
H         5.34061700000000   -1.46432000000000   -0.68607000000000
O         0.04594200000000   -1.59974700000000   -5.04432600000000
H        -0.80720700000000   -2.01198900000000   -5.28792900000000
O        -2.08875300000000   -2.49240600000000   -4.14526000000000
H        -2.06664200000000   -3.46079700000000   -3.98360600000000
O        -3.19763400000000    3.89565900000000    1.33285200000000
H        -3.86544600000000    4.24881300000000    0.73059000000000
O        -4.28084500000000    2.06392300000000   -2.46610700000000
H        -4.89551100000000    1.31805700000000   -2.45594300000000
O        -5.06052300000000   -0.46186400000000   -0.81395800000000
H        -5.48064700000000   -1.10372500000000   -0.22188900000000
O        -3.16529300000000    0.54145700000000   -4.19296600000000
H        -2.97385900000000   -0.26590000000000   -4.68561900000000
O        -2.48155600000000    4.88463200000000   -0.85067100000000
H        -2.60852800000000    5.00766600000000   -1.81644400000000
O        -2.49248800000000    3.74685300000000   -3.02143300000000
H        -3.35468000000000    3.41951900000000   -3.33214000000000
O         1.41994000000000   -1.55860200000000    4.68190000000000
H         1.23387500000000   -2.50198900000000    4.59170800000000
O         0.08257200000000    0.54441000000000    5.08235100000000
H         0.62495600000000   -0.11319700000000    5.55472700000000
O         3.56392500000000   -0.70638400000000    3.66880700000000
H         3.59554000000000   -0.07932900000000    4.41021000000000
O         3.14680600000000    1.81759600000000    3.74917600000000
H         4.06407200000000    2.07560500000000    3.54081400000000
O         4.64191200000000    2.35198200000000    1.80423400000000
H         4.44906300000000    3.31886700000000    1.85987000000000
O         5.30632400000000    0.56444900000000    0.20803200000000
H         5.68580600000000    1.26075100000000    0.76670000000000
O         3.33881600000000    4.18684300000000   -1.16345600000000
H         2.91074200000000    4.73099900000000   -1.85678100000000
O         1.14277200000000    4.90278400000000   -2.09447400000000
H         0.80226000000000    5.63889000000000   -1.54490300000000
O        -0.17929600000000    5.38899400000000   -0.02271700000000
H        -1.09781800000000    5.71204400000000    0.03688000000000
O         3.07480400000000    4.18576400000000    1.31303500000000
H         3.41040400000000    4.71158800000000    0.55762600000000
O         4.68943200000000   -0.46969600000000   -2.49395300000000
H         4.60021300000000   -0.47287000000000   -3.45723100000000
O         3.02389800000000   -0.61298200000000   -4.29730300000000
H         2.37368300000000   -0.61666400000000   -5.01141800000000
