63
 energy: -142.116799343944 gnorm: 0.000121856432 xtb: 6.4.1 (a3dbbd7)
C         0.19327587193763   -0.05773414214194   -3.52352653728877
C         0.26606059655495    1.35738060369649   -3.25760204090927
C        -1.04713986147605    1.79991708261044   -2.86378303876768
C        -1.16614405330810   -0.48774420432174   -3.30261958443901
C        -1.92848775584863    0.65771028079378   -2.89047748964466
C        -1.41251946171516   -1.73591641936116   -2.73057346305336
C        -0.33098836077655   -2.60300260938621   -2.37730119429327
C         1.24518751237717   -0.88180996349312   -3.15828635914614
C         0.98865932206674   -2.17313210094102   -2.55565156402591
C         2.40460462118410   -0.33139219291686   -2.51748435213774
C         1.39200632424276    1.89282400382568   -2.64614966801262
C         2.48277705647167    1.03118318536111   -2.27124190136205
C         1.24711764604197    2.89313002809660   -1.61606287831920
C        -1.18651295242701    2.76360682808963   -1.87461275570581
C        -0.01850740586049    3.32080271734197   -1.23944424476158
C        -2.21401003057003    2.62599935894515   -0.87295073564282
C        -2.92002989713920    0.52560803239007   -1.92430800683145
C        -3.06181955838967    1.52493160971105   -0.89784815371276
C        -2.44243841798602   -1.87011254967189   -1.72591283059782
C        -3.17857005424327   -0.76248423472398   -1.33233908475439
C        -0.67987966527697   -3.27174960887826   -1.13755957696152
C        -1.98505888383771   -2.81932274461531   -0.74497215728317
C         0.28097107064132   -3.51401991991186   -0.17731762099212
C         1.98790821197024   -2.41837591174037   -1.58688675125690
C         2.84461935590439   -1.28108965110362   -1.52022838690394
C         1.75632959743729   -3.27849159556854   -0.40568323627609
C         3.39841762326782   -0.83216307419943   -0.33206302382736
C         3.01085997870834    1.49351467648571   -1.01778246454327
C         2.25099579207848    2.64479587867926   -0.61246763804641
C         3.43627190425709    0.56194519280333   -0.06790365574304
C         1.95611634851915    2.84562599289648    0.73042081113351
C        -0.32627174546075    3.52711319121833    0.15417506897231
C        -1.68254886951998    3.09732589809920    0.37881646205382
C         0.64490025051542    3.29409638525551    1.11997976331026
C        -2.02193421947283    2.45460232631169    1.56478032817984
C        -3.41226638248525    0.85796282251016    0.33010146608759
C        -3.48286796109101   -0.55669328866215    0.06354720514499
C        -2.90448342092385    1.31489512257931    1.53909865563482
C        -2.27894784270104   -2.62105290920856    0.60370135822254
C        -3.03909808923608   -1.46578623925662    1.01185165228685
C        -0.01215436649605   -3.25783467798951    1.18640186810781
C        -1.27369304954851   -2.86109182706262    1.59031216647188
C         2.16495371156713   -2.58770539827500    0.88217277614761
C         3.27769637853963   -1.60338662616694    0.96672597927535
C         1.17756973814552   -2.68216755721842    1.79762484515863
C         3.13198848965727    0.77043963693981    1.32655206213802
C         2.40888314191741    1.89311567264002    1.71382036464308
C         2.90195313299327   -0.49981768233008    1.93806141618152
C         0.29299282970063    2.62351388115744    2.34747465332239
C        -1.01434098398018    2.21120953980186    2.56326384041025
C         1.38786873798952    1.75933611243512    2.70758228106655
C        -2.44056465722512    0.37176347012875    2.52410102494697
C        -2.49789395807295   -0.99288368732964    2.26221634442790
C        -1.40070111445964   -1.84332494418536    2.62696357792537
C        -1.27437862340060    0.92057419893668    3.15178443350811
C         1.10279545214825   -1.88325679605141    3.05672423942927
C         1.92539131312932   -0.62540072602572    2.88678254875061
C         1.14263385566712    0.50817180772090    3.26316103294933
C        -0.29153846419742   -1.32152769662260    3.24999466076466
C        -0.21534409246043    0.08054181015552    3.48901381244179
Cl        4.84590664960229   -2.39884510961527    1.40784693149150
Cl        1.63259801978228   -2.87668369484066    4.47167051897444
Cl        2.65542165808617   -4.86044796203093   -0.57319381795130
