136
 energy: -302.492945046654 gnorm: 0.000500843366 xtb: 6.4.1 (a3dbbd7)
C         2.57256300000000   -2.27123600000000   -1.74266700000000
C         1.26365700000000   -3.12818600000000   -1.37987000000000
C         1.33028600000000   -3.35119100000000    0.15707400000000
C         3.15022600000000   -1.80650400000000   -0.32762000000000
C         2.03968700000000   -2.12312300000000    0.62797300000000
C         3.87512100000000   -0.41849100000000   -0.12744500000000
C         3.69447400000000    0.68728000000000   -1.25886800000000
C         2.36053200000000   -1.18017900000000   -2.85514600000000
C         2.74805500000000    0.32052300000000   -2.45038900000000
C         0.85030700000000   -1.00575900000000   -3.46967300000000
C        -0.04803300000000   -2.52706300000000   -1.73261900000000
C        -0.26347500000000   -2.02137300000000   -3.11908000000000
C        -1.17632500000000   -2.71058000000000   -1.06942600000000
C         0.00333000000000   -3.54284900000000    0.98285100000000
C        -1.36613500000000   -3.42864200000000    0.21757600000000
C        -0.11659900000000   -2.45556200000000    2.03403300000000
C         2.29433400000000   -1.90590000000000    2.07351200000000
C         1.01612900000000   -2.11970600000000    2.94956300000000
C         3.47878500000000    0.28772900000000    1.23616600000000
C         2.51909300000000   -0.42991900000000    2.12602000000000
C         3.28671400000000    2.05852000000000   -0.45881800000000
C         2.82777000000000    1.57309900000000    0.85487800000000
C         2.22108200000000    3.02011100000000   -1.08607200000000
C         1.43667300000000    0.97059800000000   -2.29175500000000
C         0.41833200000000    0.28482700000000   -2.89995000000000
C         1.20080300000000    2.18772400000000   -1.74141900000000
C        -0.85123600000000    0.77175100000000   -2.83558800000000
C        -1.81464900000000   -1.51677300000000   -3.11207300000000
C        -2.37209000000000   -2.13642400000000   -1.78496900000000
C        -2.07589000000000    0.04063000000000   -3.23424000000000
C        -2.91952600000000   -1.16627400000000   -0.79689500000000
C        -2.31495400000000   -2.65981700000000    1.20869300000000
C        -1.34689300000000   -1.97182500000000    2.11334300000000
C        -3.35913300000000   -1.71723400000000    0.53406600000000
C        -1.87963300000000   -1.10647700000000    3.19094100000000
C         0.79187500000000   -0.76120200000000    3.71937000000000
C         1.70774300000000    0.20037900000000    2.96076100000000
C        -0.70756000000000   -0.24008500000000    3.81850300000000
C         2.35649700000000    2.49701800000000    1.91255300000000
C         1.61987200000000    1.69682700000000    3.07412900000000
C         1.33099600000000    3.94848000000000   -0.13706000000000
C         1.29224000000000    3.54396100000000    1.38352600000000
C        -0.07083300000000    2.70981000000000   -1.69976000000000
C        -1.10521300000000    1.98031600000000   -2.21297800000000
C        -0.15769400000000    3.94917400000000   -0.89073200000000
C        -3.14814900000000    0.78410000000000   -2.30015300000000
C        -3.26415200000000    0.09182600000000   -0.99282200000000
C        -2.55850100000000    2.25418300000000   -2.08137200000000
C        -3.80426500000000   -0.43515000000000    1.35543300000000
C        -2.90885400000000   -0.05560100000000    2.59703600000000
C        -3.94953000000000    0.71688600000000    0.18485700000000
C        -0.80933900000000    1.00320600000000    2.99423200000000
C         0.18260100000000    1.90447500000000    2.71361500000000
C         0.00974000000000    2.85447200000000    1.72265500000000
C        -1.99474400000000    1.06538800000000    2.29006600000000
C        -1.50355400000000    3.81327200000000   -0.07828700000000
C        -2.83404100000000    3.02716300000000   -0.73154900000000
C        -3.37875100000000    2.14833700000000    0.47936200000000
C        -1.19474700000000    2.95047200000000    1.08215800000000
C        -2.19067300000000    2.03682400000000    1.35837300000000
O         3.49104300000000   -3.22077500000000   -2.22545300000000
H         3.77790700000000   -2.92935800000000   -3.10923100000000
O         4.96944700000000    0.90292200000000   -1.78878100000000
H         4.87336000000000    0.92921200000000   -2.76278600000000
O         1.29004300000000   -4.34169800000000   -2.08970700000000
H         2.20283700000000   -4.67673700000000   -2.04930300000000
O         3.33843200000000    0.87144000000000   -3.62817000000000
H         3.09825600000000    1.80882900000000   -3.67526600000000
O         3.18246100000000   -1.55730200000000   -3.91955900000000
H         2.79380500000000   -1.15071500000000   -4.71957000000000
O         2.16620500000000   -4.48279600000000    0.37039400000000
H         1.68823300000000   -5.04917100000000    1.01121800000000
O         5.25904800000000   -0.63703000000000   -0.04633900000000
H         5.44674300000000   -1.55440700000000   -0.29882400000000
O         3.34337000000000   -2.67885100000000    2.62814100000000
H         4.03300400000000   -2.76762200000000    1.94952800000000
O         0.05121100000000   -4.79609200000000    1.61077300000000
H        -0.61082400000000   -5.34764300000000    1.14205300000000
O        -1.86620100000000   -4.71467800000000   -0.03534300000000
H        -2.66855800000000   -4.81520400000000    0.50725900000000
O        -3.00716200000000   -3.64372800000000    1.94928100000000
H        -3.11195900000000   -3.32690300000000    2.85977600000000
O         1.20730900000000   -3.14130700000000    3.88816800000000
H         2.09262900000000   -3.51207000000000    3.71871000000000
O        -2.48413500000000   -1.92640900000000    4.14626700000000
H        -2.57218000000000   -1.38319400000000    4.94886100000000
O        -4.49180300000000   -2.52283600000000    0.26554700000000
H        -5.25481400000000   -2.08353100000000    0.68338300000000
O        -1.04332400000000   -0.01763700000000    5.16075300000000
H        -0.25662100000000   -0.26206000000000    5.68702200000000
O         1.27799200000000   -0.90463300000000    5.03249100000000
H         1.37008600000000   -1.87146100000000    5.17158300000000
O         2.85380900000000    3.80123000000000   -2.06434800000000
H         3.47470200000000    4.38363600000000   -1.60047200000000
O         3.44263300000000    3.23122000000000    2.41941600000000
H         4.13954500000000    2.60191500000000    2.65915300000000
O         4.63877700000000    0.59195200000000    1.99561000000000
H         5.40071400000000    0.29395200000000    1.46184300000000
O         2.04851500000000    2.19893500000000    4.30585600000000
H         1.80469200000000    1.56967000000000    4.99542400000000
O         1.84654600000000    5.23564600000000   -0.24076500000000
H         1.74835400000000    5.63404300000000    0.65055300000000
O         1.42572100000000    4.72603000000000    2.13824500000000
H         2.22147200000000    4.62160200000000    2.68868400000000
O        -0.18102400000000   -3.07819700000000   -4.04874300000000
H         0.23087400000000   -3.83992800000000   -3.60492500000000
O         0.97257300000000   -0.94249400000000   -4.86545600000000
H         0.56840000000000   -1.76259800000000   -5.20889200000000
O        -2.44797000000000   -2.10012600000000   -4.20873000000000
H        -2.94409100000000   -2.87047400000000   -3.88058000000000
O        -3.32587600000000   -3.11325900000000   -2.12080200000000
H        -3.95421000000000   -3.18761600000000   -1.37930300000000
O        -3.02998500000000    3.05947600000000   -3.13178000000000
H        -3.85643200000000    2.63648800000000   -3.43921300000000
O        -4.36844200000000    0.86709200000000   -2.96508500000000
H        -4.17539800000000    0.62564300000000   -3.89515700000000
O        -2.46943600000000    0.32883900000000   -4.55282700000000
H        -2.47774000000000   -0.51522800000000   -5.03872500000000
O        -5.30061800000000    0.82854000000000   -0.12417700000000
H        -5.65113200000000    1.56526200000000    0.40673800000000
O        -4.40500200000000    2.84861500000000    1.15421800000000
H        -4.48224300000000    3.71573200000000    0.72274700000000
O        -3.79129000000000    4.00583600000000   -0.97461000000000
H        -3.70329700000000    4.24628500000000   -1.91703700000000
O        -1.92991500000000    5.07429600000000    0.32092500000000
H        -1.71646400000000    5.67845800000000   -0.41110500000000
O        -0.25246100000000    5.12498500000000   -1.63916500000000
H         0.61103600000000    5.57400400000000   -1.57300000000000
O        -5.09659600000000   -0.68965100000000    1.82335700000000
H        -5.10504800000000   -0.49047400000000    2.77915600000000
O        -3.77010800000000    0.30177600000000    3.66966100000000
H        -3.96673300000000    1.24537000000000    3.60276800000000
O         4.18764800000000   -2.75010900000000    0.01195400000000
H         3.81575000000000   -3.64331300000000   -0.10283600000000
O         4.46387300000000    2.82069400000000   -0.29499000000000
H         5.18679100000000    2.31286600000000   -0.71419900000000
