144
 energy: -320.795695281596 gnorm: 0.000585833342 xtb: 6.4.1 (a3dbbd7)
C         3.76983200000000   -0.81865900000000   -0.48174100000000
C         3.37698200000000   -0.05314600000000   -1.87199700000000
C         2.30698400000000   -0.97094000000000   -2.52110100000000
C         2.95519600000000   -2.16190600000000   -0.53803200000000
C         1.81585300000000   -1.88189600000000   -1.44321900000000
C         2.54666700000000   -2.86331300000000    0.78379500000000
C         2.47584200000000   -1.99687800000000    2.12361600000000
C         3.63496700000000    0.05621800000000    0.79557000000000
C         3.24854800000000   -0.61069300000000    2.16823200000000
C         2.70475900000000    1.22820300000000    0.70058400000000
C         2.93457500000000    1.45409200000000   -1.76650500000000
C         2.42221000000000    1.84342500000000   -0.42040000000000
C         1.80209400000000    2.03367900000000   -2.71219000000000
C         1.06936300000000   -0.31858100000000   -2.98318400000000
C         0.82548100000000    0.97192800000000   -3.06000300000000
C        -0.01588900000000   -1.18653400000000   -3.55550800000000
C         0.96325800000000   -3.00547000000000   -1.91660400000000
C        -0.26473800000000   -2.49782500000000   -2.75120900000000
C         1.07004900000000   -3.47801000000000    0.65982900000000
C         0.37682600000000   -3.81997600000000   -0.70071800000000
C         1.02162200000000   -1.85095200000000    2.38061400000000
C         0.25636100000000   -2.49960700000000    1.45080400000000
C         0.48541800000000   -1.16442100000000    3.56558600000000
C         2.41322400000000    0.53550100000000    2.95391100000000
C         2.53191800000000    1.83057100000000    2.05941100000000
C         0.97463900000000    0.21994500000000    3.18596700000000
C         1.43784200000000    2.95534000000000    2.15011300000000
C         1.86047600000000    3.22385400000000   -0.48498900000000
C         1.16095300000000    3.27759000000000   -1.89660700000000
C         1.01888900000000    3.61623200000000    0.74077200000000
C        -0.42451700000000    3.28839700000000   -1.95187800000000
C        -0.58466500000000    1.24073000000000   -3.50486500000000
C        -1.23717400000000   -0.17710500000000   -3.72589300000000
C        -1.10139500000000    2.00034900000000   -2.34658700000000
C        -2.50059100000000   -0.49106200000000   -2.82615200000000
C        -1.31803400000000   -2.38934800000000   -1.70725400000000
C        -1.20943700000000   -3.53027800000000   -0.74300100000000
C        -2.27858200000000   -1.49594500000000   -1.72299100000000
C        -1.08645400000000   -2.53314000000000    1.54592100000000
C        -1.95366300000000   -3.23454900000000    0.58243000000000
C        -1.10155300000000   -1.03471900000000    3.66671900000000
C        -1.88497800000000   -1.96812800000000    2.66791700000000
C        -0.02166400000000    1.08444100000000    3.12194000000000
C         0.05948200000000    2.52062700000000    2.76019100000000
C        -1.34875500000000    0.54284800000000    3.57305400000000
C        -0.42200100000000    3.22965900000000    0.56947700000000
C        -1.20012900000000    3.64935700000000   -0.62519400000000
C        -0.93801600000000    2.67619900000000    1.64986500000000
C        -2.22042300000000    1.75865500000000   -1.69104500000000
C        -3.19044800000000    0.68598500000000   -2.06346600000000
C        -2.54895800000000    2.84872000000000   -0.70501800000000
C        -3.46593500000000   -1.48243500000000   -0.79801400000000
C        -3.24720800000000   -2.26835400000000    0.55978300000000
C        -3.09020900000000   -1.36915600000000    1.85753600000000
C        -3.79366800000000    0.03841500000000   -0.74019700000000
C        -2.54246400000000    0.99653000000000    2.68146600000000
C        -2.36488600000000    2.37699500000000    1.92900200000000
C        -3.14435900000000    2.19276500000000    0.59424900000000
C        -2.83482200000000    0.05840600000000    1.55288900000000
C        -3.16765900000000    0.68749400000000    0.43962700000000
O         5.13059300000000   -1.14256500000000   -0.53157600000000
H         5.21886800000000   -1.92293600000000   -1.10482200000000
O         3.44652700000000   -3.89457800000000    1.06486900000000
H         3.89923800000000   -4.10762100000000    0.22587500000000
O         1.73244000000000   -3.89364300000000   -2.72299300000000
H         1.51011500000000   -4.79137800000000   -2.38335200000000
O         4.53426700000000   -0.05556900000000   -2.66201200000000
H         4.37365600000000   -0.68538600000000   -3.39053400000000
O         0.58499800000000   -5.17576900000000   -0.96022600000000
H        -0.29039100000000   -5.52294600000000   -1.24310300000000
O         1.04045700000000   -4.65160400000000    1.43038600000000
H         1.96355900000000   -4.89544100000000    1.62320600000000
O         2.93580500000000   -1.66465500000000   -3.60418000000000
H         2.26254000000000   -1.84144900000000   -4.27988100000000
O         2.96996100000000   -2.77514300000000    3.19021600000000
H         3.93744100000000   -2.80788700000000    3.11073400000000
O         2.33829100000000    2.49986200000000   -3.91295200000000
H         3.12366700000000    3.02557700000000   -3.68766700000000
O        -0.79429200000000    4.23616500000000   -2.93919700000000
H        -1.09883700000000    5.02214600000000   -2.43856300000000
O         1.63069000000000    4.45352300000000   -2.48516900000000
H         1.02573200000000    4.68624500000000   -3.20841900000000
O         4.07757400000000    2.26057300000000   -2.01208800000000
H         4.77319300000000    1.65359000000000   -2.32952900000000
O        -1.43588900000000    5.03121200000000   -0.61096300000000
H        -2.39687400000000    5.16284700000000   -0.58325700000000
O        -3.48948200000000    3.73525800000000   -1.26301000000000
H        -4.19180000000000    3.21625600000000   -1.67957200000000
O        -4.47992400000000    2.61470300000000    0.74577800000000
H        -4.50847100000000    3.17982800000000    1.53474200000000
O        -2.93500700000000    3.43579100000000    2.64502000000000
H        -2.34428700000000    3.62732400000000    3.39179800000000
O         4.89352700000000    0.68758100000000    0.98299800000000
H         5.58077400000000    0.03777600000000    0.75984400000000
O         4.43376000000000   -0.84145100000000    2.86648100000000
H         4.31981000000000   -0.41427400000000    3.74322800000000
O        -4.26610100000000   -1.39903900000000    2.62505300000000
H        -4.69153500000000   -2.25653300000000    2.45035000000000
O        -5.18989600000000    0.20200600000000   -0.69564100000000
H        -5.38058800000000    1.06301200000000   -0.29198200000000
O        -3.68405000000000    1.11495300000000    3.50180100000000
H        -4.15548900000000    0.26411100000000    3.48834700000000
O        -1.55456100000000    1.02895100000000    4.86757900000000
H        -2.50818400000000    1.21339600000000    4.95710000000000
O        -4.36631000000000   -3.06799100000000    0.78777300000000
H        -4.77569000000000   -3.22370200000000   -0.08658200000000
O        -4.52774000000000   -2.13296200000000   -1.46918700000000
H        -5.27918600000000   -1.51623700000000   -1.47682700000000
O        -2.39878600000000   -3.08221800000000    3.37761500000000
H        -2.29967000000000   -2.86881000000000    4.32509000000000
O        -1.50083200000000   -1.44422900000000    4.94442000000000
H        -0.75704600000000   -1.28789300000000    5.54657100000000
O        -0.68262000000000   -3.50111200000000   -3.63862000000000
H         0.08133400000000   -3.72444300000000   -4.19389100000000
O        -4.19992300000000    1.29511400000000   -2.81833600000000
H        -4.55826300000000    0.61352200000000   -3.40957500000000
O        -0.70323500000000    1.98105700000000   -4.69544300000000
H        -0.67836600000000    2.92335800000000   -4.47367600000000
O         0.43717500000000   -1.58683500000000   -4.83698800000000
H        -0.26340200000000   -1.31895200000000   -5.46480200000000
O         3.04257300000000    0.76190300000000    4.18472000000000
H         3.48061800000000    1.63615900000000    4.09972900000000
O        -1.66212000000000   -0.26978600000000   -5.05832400000000
H        -1.56410200000000    0.61735000000000   -5.45050700000000
O        -0.31381100000000    3.35187500000000    3.82654000000000
H         0.50645800000000    3.79733800000000    4.11572900000000
O         1.94693700000000    3.95411200000000    2.97821900000000
H         1.82874300000000    4.79563200000000    2.48714300000000
O         1.08137400000000    5.00989000000000    0.90023300000000
H         1.80551700000000    5.32591700000000    0.33010000000000
O         3.81975000000000   -3.09882900000000   -1.22952300000000
H         3.33070500000000   -3.43096200000000   -2.01209600000000
O         3.72194100000000    2.47721400000000    2.44812500000000
H         4.46748700000000    2.04056100000000    1.99338400000000
O         2.94025900000000    4.13220100000000   -0.46173700000000
H         3.61409900000000    3.82316400000000   -1.08820100000000
O         0.99102100000000   -1.62837300000000    4.78165700000000
H         1.79423000000000   -2.14480600000000    4.59801100000000
O        -3.51708100000000   -0.99231900000000   -3.66806200000000
H        -3.21219400000000   -1.81606900000000   -4.06732400000000
O        -1.81045700000000   -4.65897400000000   -1.33118600000000
H        -2.31812100000000   -5.09561000000000   -0.62271100000000
O        -2.36470500000000   -4.49103100000000    1.06765100000000
H        -2.55228200000000   -4.39467600000000    2.01623900000000
