156
 energy: -348.029437848971 gnorm: 0.000243830249 xtb: 6.4.1 (a3dbbd7)
C         3.85137700000000    0.78224300000000    0.38645400000000
C         3.86549100000000   -0.45592900000000   -0.64887300000000
C         3.34039600000000   -1.71422200000000    0.18015600000000
C         3.27935100000000    0.13905000000000    1.71188900000000
C         2.54366500000000   -1.09148000000000    1.28427200000000
C         2.57685700000000    1.06517700000000    2.74685900000000
C         1.84309800000000    2.31690000000000    2.18743400000000
C         3.27018400000000    2.16721700000000   -0.14467600000000
C         2.33017000000000    2.98620200000000    0.87241900000000
C         2.48620900000000    2.23740100000000   -1.51217200000000
C         3.11794600000000   -0.31434800000000   -2.00331300000000
C         2.72514400000000    1.10362900000000   -2.53396800000000
C         1.87159200000000   -1.12546400000000   -2.12796500000000
C         2.59319200000000   -2.92000700000000   -0.51814300000000
C         1.94079900000000   -2.59124500000000   -1.92068900000000
C         1.39798400000000   -3.50823600000000    0.34861600000000
C         2.11300300000000   -1.98648500000000    2.39554300000000
C         1.28088900000000   -3.22555600000000    1.88253300000000
C         1.47316800000000    0.30177900000000    3.66573700000000
C         1.18667600000000   -1.21680900000000    3.38891200000000
C         0.40230400000000    1.93032400000000    2.25763700000000
C         0.16191800000000    1.19276500000000    3.52710500000000
C        -0.55533900000000    2.50830400000000    1.57644400000000
C         1.11625800000000    3.49975400000000   -0.02423400000000
C         1.07744800000000    2.57732800000000   -1.17720900000000
C        -0.27696600000000    3.60867800000000    0.62405800000000
C         0.16015300000000    2.94377300000000   -2.28668900000000
C         1.44796600000000    0.86568800000000   -3.48338200000000
C         1.19659300000000   -0.70250600000000   -3.38388700000000
C         0.13224000000000    1.72326900000000   -3.25632400000000
C        -0.25589700000000   -1.19474900000000   -3.47092200000000
C         0.49836000000000   -3.18809400000000   -1.90397800000000
C         0.19647900000000   -3.08049900000000   -0.44569200000000
C        -0.56882400000000   -2.61662900000000   -2.88787200000000
C        -1.01775900000000   -2.95142800000000    0.02076000000000
C        -0.20792500000000   -2.94461300000000    2.38873600000000
C        -0.16045300000000   -1.51950200000000    2.80701600000000
C        -1.38278900000000   -3.23654600000000    1.43432800000000
C        -1.23622300000000    0.54328700000000    3.55602300000000
C        -1.24039500000000   -0.78702400000000    2.89106100000000
C        -1.99930400000000    2.52959300000000    1.94698200000000
C        -2.43749500000000    1.30926300000000    2.82673400000000
C        -1.54148200000000    3.64438300000000   -0.31785100000000
C        -1.35826400000000    3.20012200000000   -1.83079100000000
C        -2.68451600000000    2.86623600000000    0.55378100000000
C        -1.01889900000000    0.97458700000000   -2.64777000000000
C        -1.19442700000000   -0.31577000000000   -2.73204600000000
C        -2.13705500000000    1.91896000000000   -2.34529400000000
C        -2.10409300000000   -2.47305500000000   -2.29296900000000
C        -2.24162000000000   -2.95294000000000   -0.82121500000000
C        -2.50429100000000   -0.99646300000000   -2.58774400000000
C        -2.76083500000000   -2.44901000000000    1.61284300000000
C        -2.63866000000000   -1.19705800000000    2.54756000000000
C        -3.21477400000000    0.17131500000000    2.05241200000000
C        -3.31506700000000   -2.25854200000000    0.09032100000000
C        -3.39467600000000    1.61547600000000   -0.03777600000000
C        -3.35975100000000    1.35070000000000   -1.56734500000000
C        -3.57398100000000   -0.26915500000000   -1.71319200000000
C        -3.06409100000000    0.29048600000000    0.58796300000000
C        -3.71502700000000   -0.77447400000000   -0.23595300000000
O         5.19308900000000    1.07315700000000    0.69584100000000
H         5.74003800000000    0.51657800000000    0.09888600000000
O         3.56943300000000    1.56379100000000    3.60601000000000
H         4.36756100000000    1.01275600000000    3.42339100000000
O         3.24241100000000   -2.45896200000000    3.10670400000000
H         3.06517900000000   -3.39927200000000    3.30757700000000
O         5.21256800000000   -0.68801600000000   -0.96267100000000
H         5.48141100000000   -1.42709300000000   -0.36534600000000
O         1.23473000000000   -1.92606700000000    4.61255700000000
H         1.55447500000000   -1.30151700000000    5.28877100000000
O         1.91295900000000    0.39105400000000    4.99103900000000
H         2.72041400000000    0.95109100000000    4.97488100000000
O         4.51598100000000   -2.29164300000000    0.74148800000000
H         4.52427400000000   -3.23240000000000    0.46237000000000
O         1.90879500000000    3.33148300000000    3.19335100000000
H         2.77698800000000    3.76031800000000    3.10566700000000
O         3.05848600000000    4.10817300000000    1.28578100000000
H         3.65767200000000    4.32431700000000    0.54314400000000
O         4.38105300000000    2.98846900000000   -0.38918500000000
H         5.12050400000000    2.62174900000000    0.14169300000000
O         3.52559300000000   -3.94569300000000   -0.71154000000000
H         3.69291900000000   -3.97196800000000   -1.68016600000000
O         2.70614200000000   -3.23491600000000   -2.92187500000000
H         2.14591300000000   -3.93912100000000   -3.29438500000000
O         0.65799600000000   -4.57215800000000   -2.21292800000000
H        -0.19956800000000   -4.89885500000000   -2.52573900000000
O        -0.61189200000000   -3.52876000000000   -3.94359700000000
H        -1.03603800000000   -3.06378600000000   -4.68624100000000
O         0.63993300000000    4.08659000000000   -2.95830800000000
H        -0.13777800000000    4.62063700000000   -3.20105100000000
O        -0.29001700000000    2.20383600000000   -4.51545300000000
H         0.41233800000000    1.98528700000000   -5.15573100000000
O        -1.77144700000000    4.26777100000000   -2.63867400000000
H        -2.69607300000000    4.46586200000000   -2.44431800000000
O        -1.96051000000000    4.97198800000000   -0.42812700000000
H        -1.73160600000000    5.43127400000000    0.39353600000000
O        -0.63411100000000   -1.17586600000000   -4.82971000000000
H         0.18931200000000   -1.23159900000000   -5.34490000000000
O        -0.27327300000000    4.82726000000000    1.36587700000000
H         0.16760400000000    4.66438800000000    2.21244700000000
O         3.00173700000000    3.40883800000000   -2.15846600000000
H         2.27413300000000    4.02263100000000   -2.38003600000000
O         1.85867800000000    1.13772000000000   -4.79449200000000
H         2.82195400000000    1.31575800000000   -4.75577400000000
O         3.80764400000000    1.50050400000000   -3.34176200000000
H         3.91681600000000    2.46551600000000   -3.16723100000000
O         1.81826700000000   -1.31702700000000   -4.50080800000000
H         2.77593600000000   -1.35928000000000   -4.32369800000000
O        -2.53409500000000   -4.32961800000000   -0.88618200000000
H        -3.46112800000000   -4.41292600000000   -1.16036000000000
O        -4.45814900000000   -3.04441600000000   -0.04113100000000
H        -5.21371900000000   -2.43140700000000   -0.15344400000000
O        -4.58279800000000    0.22817000000000    2.41912100000000
H        -4.64044100000000   -0.27531800000000    3.25848800000000
O        -4.78528600000000   -0.49133300000000   -2.35689200000000
H        -5.16082400000000    0.38683200000000   -2.56870700000000
O        -3.30778100000000   -1.45213400000000    3.76498500000000
H        -3.54862600000000   -2.39639400000000    3.76056200000000
O        -3.65900700000000   -3.30474900000000    2.25795300000000
H        -3.52060800000000   -4.18269700000000    1.85610200000000
O        -4.47468700000000    1.96750600000000   -2.14495700000000
H        -5.09112200000000    2.18047100000000   -1.42043200000000
O        -2.92589900000000   -3.32356700000000   -3.02804200000000
H        -3.31994000000000   -2.79380600000000   -3.74129100000000
O        -4.78526900000000    1.79058400000000    0.24269200000000
H        -4.90631400000000    2.01633300000000    1.17563500000000
O        -3.28896400000000    1.81119300000000    3.81931500000000
H        -3.08375100000000    1.28003300000000    4.62132700000000
O        -3.70064300000000    3.79523600000000    0.78236500000000
H        -3.39646300000000    4.36824100000000    1.50917100000000
O         1.76314700000000   -4.33428100000000    2.58857000000000
H         1.70481300000000   -5.09761200000000    1.98700700000000
O         4.45957600000000   -0.30660100000000    2.39469500000000
H         4.30494800000000   -1.20205400000000    2.75499500000000
O        -1.61020500000000    0.36136100000000    4.90316100000000
H        -1.02255000000000    0.92745900000000    5.43358800000000
O        -0.45713400000000   -3.74008800000000    3.52615800000000
H         0.16248700000000   -3.46097500000000    4.22108900000000
O         0.11527300000000    2.10610000000000    4.60487400000000
H         0.87034700000000    2.71338600000000    4.51692000000000
O        -2.15552600000000    3.69154500000000    2.74638500000000
H        -2.68979000000000    3.41510900000000    3.51857000000000
O         1.46785400000000   -4.91748000000000    0.27593600000000
H         1.25896400000000   -5.18230400000000   -0.63878200000000
O        -1.66919000000000   -4.61171200000000    1.53160700000000
H        -1.35169900000000   -4.89711300000000    2.40592800000000
O        -3.02733200000000   -1.02449200000000   -3.91011000000000
H        -3.21320200000000   -0.11468800000000   -4.18253700000000
O        -2.71738500000000    2.20885900000000   -3.60134000000000
H        -2.00435000000000    2.45424100000000   -4.21807800000000
O         3.97256000000000   -0.88563400000000   -2.99539000000000
H         4.74870800000000   -0.31070300000000   -3.08526200000000
O         1.44495200000000    4.78844600000000   -0.49970000000000
H         1.01362200000000    5.43407300000000    0.08661900000000
O        -5.12172900000000   -0.72276300000000    0.00845800000000
H        -5.27215600000000   -0.44102200000000    0.93058400000000
