144
 energy: -320.791008913161 gnorm: 0.000253940398 xtb: 6.4.1 (a3dbbd7)
C         3.64567300000000   -1.45660400000000    0.02220500000000
C         2.96159000000000   -2.15095500000000    1.33807000000000
C         2.63778600000000   -0.95476900000000    2.27392900000000
C         3.73053000000000    0.06942400000000    0.37767000000000
C         2.71333100000000    0.27160000000000    1.44103900000000
C         3.71736200000000    1.13745300000000   -0.75130200000000
C         3.05901500000000    0.74859400000000   -2.13126300000000
C         2.97709800000000   -1.82826900000000   -1.32606300000000
C         2.95098300000000   -0.77491700000000   -2.49378900000000
C         1.56616200000000   -2.31942000000000   -1.24701700000000
C         1.74717500000000   -3.12468600000000    1.08543500000000
C         1.03305300000000   -2.91793200000000   -0.21228100000000
C         0.53592900000000   -3.15369500000000    2.10089100000000
C         1.25899900000000   -0.89719600000000    2.81497400000000
C         0.31411600000000   -1.81403000000000    2.72367700000000
C         0.89004200000000    0.27552000000000    3.67392300000000
C         2.65211900000000    1.55729200000000    2.17057500000000
C         1.39643900000000    1.64917900000000    3.13948900000000
C         2.92690300000000    2.47535000000000   -0.32463500000000
C         2.47188800000000    2.73025900000000    1.16227300000000
C         1.77552200000000    1.53236000000000   -2.15018100000000
C         1.70166300000000    2.45866000000000   -1.21008100000000
C         0.89806600000000    1.43402200000000   -3.36390400000000
C         1.58455100000000   -1.11419700000000   -3.30109600000000
C         0.99983300000000   -2.41876400000000   -2.61938700000000
C         0.59111200000000   -0.01544400000000   -3.24549000000000
C        -0.53626700000000   -2.62413200000000   -2.60975500000000
C        -0.22410600000000   -3.73665900000000   -0.22990600000000
C        -0.74366800000000   -3.52979700000000    1.23239300000000
C        -1.19857600000000   -3.45761000000000   -1.42815100000000
C        -1.73858200000000   -2.41773300000000    1.30063400000000
C        -0.94189000000000   -1.41140500000000    3.47440000000000
C        -0.67863800000000    0.11026600000000    3.77631800000000
C        -2.19600300000000   -1.79464900000000    2.60518600000000
C        -1.38111800000000    0.97690700000000    2.79931100000000
C         0.41322200000000    2.38240600000000    2.26549300000000
C         0.96787000000000    2.95370100000000    1.21131900000000
C        -1.01512000000000    2.42753800000000    2.67950000000000
C         0.68703500000000    3.55754000000000   -1.20929900000000
C         0.21589900000000    3.84494800000000    0.28179500000000
C        -0.49258500000000    2.18849700000000   -3.23210600000000
C        -0.60786600000000    3.15705400000000   -1.99640400000000
C        -0.73384200000000   -0.18295800000000   -2.92706800000000
C        -1.29533000000000   -1.34682600000000   -2.55192100000000
C        -1.55850400000000    1.02103400000000   -3.23657100000000
C        -2.51962600000000   -2.64403600000000   -1.06561800000000
C        -2.44490400000000   -1.98673100000000    0.26463000000000
C        -2.71696900000000   -1.56778600000000   -2.19864700000000
C        -3.13703100000000   -0.64702400000000    2.11336200000000
C        -2.41756200000000    0.64409100000000    2.05831100000000
C        -3.58394600000000   -1.10072700000000    0.67708400000000
C        -2.01162500000000    3.02326400000000    1.62073400000000
C        -1.33656100000000    3.55758900000000    0.30302400000000
C        -1.49439400000000    2.66478500000000   -0.88928300000000
C        -3.06933200000000    1.82158300000000    1.41023100000000
C        -2.78470600000000    1.10293900000000   -2.30398400000000
C        -3.53122400000000   -0.25278700000000   -1.87332700000000
C        -3.99543600000000    0.02652400000000   -0.33730000000000
C        -2.42330500000000    1.74732200000000   -1.01532200000000
C        -3.50665500000000    1.50853300000000   -0.02927200000000
O         4.94881500000000   -1.95889000000000   -0.09263100000000
H         5.51539700000000   -1.44118300000000    0.50292600000000
O         5.05516900000000    1.48624000000000   -0.97407700000000
H         5.19655500000000    1.47477800000000   -1.93880300000000
O         3.83422000000000    1.73700600000000    2.93661000000000
H         3.71544400000000    2.58597300000000    3.39832200000000
O         3.95359800000000   -2.93669000000000    1.93282200000000
H         4.24194500000000   -2.45807400000000    2.73442800000000
O         3.15304500000000    3.82737800000000    1.69682000000000
H         3.29880200000000    4.45914500000000    0.97429100000000
O         3.70986400000000    3.57406900000000   -0.70959300000000
H         4.61826900000000    3.23408600000000   -0.83829500000000
O         3.56406000000000   -0.97039400000000    3.36071700000000
H         3.87879300000000   -0.06142800000000    3.50704000000000
O         3.89048600000000    1.34628400000000   -3.10987800000000
H         3.34859600000000    1.52921100000000   -3.89756400000000
O         4.01989700000000   -1.02470100000000   -3.35582000000000
H         4.33854900000000   -1.92774000000000   -3.15750000000000
O         3.68709300000000   -2.95844400000000   -1.84994400000000
H         4.42451200000000   -3.13482600000000   -1.23590200000000
O         0.75357500000000   -4.10799100000000    3.09330100000000
H        -0.02621000000000   -4.69658100000000    3.08768200000000
O         2.26971100000000   -4.43685100000000    1.00924100000000
H         3.02248400000000   -4.46793000000000    1.62800300000000
O        -2.95194900000000   -2.73328200000000    3.32777000000000
H        -3.84760300000000   -2.36692800000000    3.41900200000000
O        -1.00538400000000   -2.05778300000000    4.71824100000000
H        -1.72714500000000   -2.71422900000000    4.64350600000000
O         1.72806100000000    2.48579700000000    4.21414900000000
H         1.83719700000000    1.92476900000000    4.99913600000000
O         1.46216600000000    0.11787400000000    4.95745800000000
H         1.32135400000000   -0.79234700000000    5.24636600000000
O        -1.12925100000000    0.46744200000000    5.05505900000000
H        -1.19487700000000   -0.35834800000000    5.56808200000000
O        -4.22655100000000   -0.55356200000000    2.98860100000000
H        -4.59716300000000    0.34332500000000    2.90298200000000
O         1.60141000000000    1.84523800000000   -4.49986600000000
H         1.02752500000000    2.50332200000000   -4.94226800000000
O         1.23578700000000    4.70823700000000   -1.78359200000000
H         1.34710700000000    5.35134700000000   -1.05574200000000
O        -0.63021000000000    2.97282200000000   -4.38253300000000
H        -1.35063200000000    2.58847400000000   -4.90935400000000
O        -1.20302300000000    4.35325400000000   -2.45567300000000
H        -0.51389900000000    4.84185200000000   -2.93616100000000
O        -4.21601100000000    2.09003300000000    2.17855500000000
H        -4.68242500000000    2.81531900000000    1.73293600000000
O        -2.70161000000000    4.09091800000000    2.17715500000000
H        -2.44893600000000    4.14313800000000    3.11507300000000
O        -1.18301000000000    3.11132600000000    3.89748600000000
H        -1.03948300000000    2.48773500000000    4.62470200000000
O         0.46612900000000    5.18503100000000    0.59226900000000
H        -0.41601600000000    5.61233400000000    0.64009400000000
O        -3.62292700000000   -3.51303000000000   -1.01987100000000
H        -3.32671800000000   -4.35813900000000   -1.41352000000000
O        -1.63172600000000   -4.69494400000000   -1.91246800000000
H        -1.37080600000000   -4.74643900000000   -2.85115800000000
O        -0.88986000000000   -3.27816300000000   -3.82517800000000
H        -0.05912400000000   -3.51076000000000   -4.27408000000000
O        -4.69118800000000   -0.31531200000000   -2.64859200000000
H        -5.44638000000000   -0.25869000000000   -2.02044200000000
O        -5.39506700000000    0.07434000000000   -0.34380000000000
H        -5.70265100000000   -0.66854200000000    0.21946700000000
O        -3.74807900000000    1.93798000000000   -2.91227700000000
H        -4.42571800000000    1.33401600000000   -3.28651800000000
O        -4.71543000000000   -1.93552900000000    0.87120900000000
H        -4.64651100000000   -2.68815900000000    0.25433800000000
O        -1.31125400000000   -4.71207700000000    1.71526900000000
H        -1.08728100000000   -5.40428400000000    1.05931600000000
O        -2.01187200000000    0.91167000000000   -4.57445200000000
H        -2.65497800000000    0.19220100000000   -4.62399900000000
O         1.88678400000000   -1.36517700000000   -4.64174100000000
H         2.84352200000000   -1.20281000000000   -4.75878100000000
O         4.99401200000000    0.17594400000000    1.04743200000000
H         5.03513000000000    1.02892500000000    1.50679800000000
O         0.12205700000000   -5.09836500000000   -0.35691900000000
H         0.98632700000000   -5.22774400000000    0.07839500000000
O         1.50352300000000   -3.56067100000000   -3.27998400000000
H         2.42379900000000   -3.69592100000000   -3.00660000000000
O        -4.55608700000000    2.40591900000000   -0.30294300000000
H        -4.60718400000000    2.53491300000000   -1.26530900000000
O        -1.96710100000000    4.79064400000000    0.03860500000000
H        -1.99686800000000    4.91041900000000   -0.93010200000000
O        -3.38983300000000   -2.16130800000000   -3.28971000000000
H        -2.78258500000000   -2.77940300000000   -3.72332100000000
144
 energy: -320.791009172170 gnorm: 0.000152486412 xtb: 6.4.1 (a3dbbd7)
C         3.64570607846499   -1.45662525470624    0.02221542478740
C         2.96157688982684   -2.15096476786861    1.33806197045659
C         2.63778016059629   -0.95477964733760    2.27391787038490
C         3.73054215788974    0.06940800349122    0.37765647867027
C         2.71332139402414    0.27158549984790    1.44101378778724
C         3.71737009268254    1.13742871794880   -0.75133007828285
C         3.05898998133468    0.74858610190421   -2.13127643118019
C         2.97713373747280   -1.82830256640945   -1.32604361826074
C         2.95096944165049   -0.77493708416634   -2.49376844907073
C         1.56620219406452   -2.31946168478544   -1.24699190013388
C         1.74715845760984   -3.12470919913542    1.08546159529875
C         1.03305393478606   -2.91796354854053   -0.21227374022915
C         0.53591747106192   -3.15370183265351    2.10091624190566
C         1.25898819498918   -0.89719768645259    2.81495193473803
C         0.31410272842991   -1.81403282915812    2.72367555015760
C         0.89004328621150    0.27551221746671    3.67391354832740
C         2.65211014113958    1.55728596291206    2.17055417393339
C         1.39643161007054    1.64917161948605    3.13947767761469
C         2.92686674689916    2.47533056943016   -0.32466250359075
C         2.47184946214582    2.73021931952203    1.16223782873612
C         1.77549114915757    1.53235636495908   -2.15024160300961
C         1.70162804815597    2.45864234164970   -1.21012023372338
C         0.89803306621613    1.43402683277328   -3.36398443348940
C         1.58454196209478   -1.11418934138256   -3.30105214416001
C         0.99987272511943   -2.41876350843129   -2.61936347002989
C         0.59109625646962   -0.01541868266767   -3.24542664230266
C        -0.53622425355329   -2.62405865328176   -2.60971587819123
C        -0.22411101984725   -3.73665811183177   -0.22989310092718
C        -0.74368657363968   -3.52979649339507    1.23239154865803
C        -1.19855964624064   -3.45759831846237   -1.42817590844157
C        -1.73860766972636   -2.41771928165261    1.30062801764570
C        -0.94190576244812   -1.41140286780175    3.47439635460844
C        -0.67864299749865    0.11027163401649    3.77630987476186
C        -2.19600428815706   -1.79462530362322    2.60518392141328
C        -1.38114302408187    0.97690603394831    2.79929924870453
C         0.41320651846880    2.38237989649344    2.26548304013226
C         0.96783793887048    2.95365804480690    1.21129465962335
C        -1.01513043546286    2.42753481762385    2.67950456613560
C         0.68699667902357    3.55751402017989   -1.20930683690056
C         0.21586957464466    3.84492709991217    0.28179866121984
C        -0.49264590064759    2.18851794782957   -3.23210326065957
C        -0.60789242385482    3.15706730624391   -1.99642850622059
C        -0.73385506878765   -0.18290769910138   -2.92699395891218
C        -1.29528537916994   -1.34678333433060   -2.55174402137079
C        -1.55847907133917    1.02105334386435   -3.23657367158825
C        -2.51971575242366   -2.64411200348342   -1.06560641647175
C        -2.44498094948451   -1.98676644227599    0.26463488856100
C        -2.71689991449118   -1.56777401870273   -2.19857605667548
C        -3.13703405636800   -0.64701184943984    2.11332494518538
C        -2.41756360722152    0.64408157637506    2.05826449201982
C        -3.58400355175366   -1.10070310874381    0.67704344199645
C        -2.01163115604073    3.02326319052371    1.62073144572224
C        -1.33657834970506    3.55756222536666    0.30301887488664
C        -1.49446579506160    2.66482937749669   -0.88933926668088
C        -3.06933272734488    1.82157990358193    1.41017078057650
C        -2.78469697429613    1.10296858008368   -2.30404688853325
C        -3.53107598704512   -0.25272149315035   -1.87322078522401
C        -3.99568794330534    0.02652922021785   -0.33727679483743
C        -2.42330849551955    1.74730769803475   -1.01533244954281
C        -3.50668565477832    1.50846871704483   -0.02931526905035
O         4.94884596210285   -1.95890650594685   -0.09260724603244
H         5.51543526285772   -1.44118200541457    0.50293012022224
O         5.05517079725870    1.48621125602466   -0.97411639412723
H         5.19646766888318    1.47487776102112   -1.93887012242822
O         3.83420698662846    1.73701219403861    2.93657936225812
H         3.71550158481777    2.58604951183300    3.39817474557886
O         3.95359986024011   -2.93668774507781    1.93280132855076
H         4.24187305271156   -2.45814232251648    2.73447546880044
O         3.15301717667371    3.82733264086713    1.69681321993225
H         3.29831318464593    4.45937541060525    0.97446950620086
O         3.70982864586902    3.57404691556423   -0.70960000894032
H         4.61823736091115    3.23404443120868   -0.83827916568107
O         3.56403694986444   -0.97040820089774    3.36072658880955
H         3.87874552385106   -0.06145046035399    3.50709272522227
O         3.89048960518762    1.34624516379566   -3.10990823590265
H         3.34857222710390    1.52924040689213   -3.89756562643032
O         4.01982337009430   -1.02476058845448   -3.35586274700871
H         4.33852753974543   -1.92776936500860   -3.15748928605947
O         3.68713385119046   -2.95847350606105   -1.84992302424379
H         4.42459183400911   -3.13480640041295   -1.23590806534354
O         0.75352023989685   -4.10797831737827    3.09334580147526
H        -0.02620594334379   -4.69665523695796    3.08760560662828
O         2.26967812477110   -4.43688191341397    1.00930628123495
H         3.02260005928977   -4.46787428409146    1.62790259126387
O        -2.95198653773672   -2.73324688289126    3.32777564074924
H        -3.84762500989981   -2.36686595466809    3.41901602915870
O        -1.00539948951017   -2.05776928811458    4.71823549200067
H        -1.72715258677354   -2.71422845842453    4.64347763878029
O         1.72804885935913    2.48579175766433    4.21412911112565
H         1.83731693374585    1.92475184697808    4.99909034623085
O         1.46217737895251    0.11785770205177    4.95744215022347
H         1.32141309150737   -0.79237507421391    5.24633396990535
O        -1.12924244647930    0.46744067381169    5.05504394372707
H        -1.19483676507990   -0.35836850901951    5.56805309086149
O        -4.22657317128033   -0.55352889522938    2.98855937969317
H        -4.59704188834911    0.34342147515413    2.90308132658883
O         1.60126467682912    1.84530882305109   -4.49998700709086
H         1.02729303183995    2.50345764505105   -4.94222209183366
O         1.23572465348994    4.70821681746952   -1.78359641235597
H         1.34712103739635    5.35128249941256   -1.05571868127583
O        -0.63024395942765    2.97284366299758   -4.38256633367605
H        -1.35019297646066    2.58814643920120   -4.90976461590380
O        -1.20301338633802    4.35330126908078   -2.45562557404681
H        -0.51354812894511    4.84223137763306   -2.93542593717507
O        -4.21597752519499    2.09005916768595    2.17853842044684
H        -4.68215340286330    2.81568910934329    1.73321877905636
O        -2.70160011048723    4.09093141759517    2.17716445346467
H        -2.44879667490598    4.14327478624070    3.11503702114780
O        -1.18299883427462    3.11132109885384    3.89748662845084
H        -1.03944699368058    2.48775230138218    4.62471774708491
O         0.46615061032364    5.18499002906841    0.59227331146494
H        -0.41599683732818    5.61234446122675    0.63994413785511
O        -3.62295522112387   -3.51313034811337   -1.01983412098957
H        -3.32680115759667   -4.35805391628660   -1.41391624256667
O        -1.63175478257086   -4.69494389255284   -1.91257640406726
H        -1.37008775615877   -4.74673284837686   -2.85110328127715
O        -0.88986254848119   -3.27801656233337   -3.82520245211695
H        -0.05909926576150   -3.51017128197021   -4.27428644597750
O        -4.69101364629169   -0.31535771395340   -2.64847539591965
H        -5.44621837203595   -0.25890071312868   -2.02034510851545
O        -5.39532367700072    0.07437639393162   -0.34362942141895
H        -5.70283007994587   -0.66862317710704    0.21953272942242
O        -3.74810199698318    1.93800000399714   -2.91229735157604
H        -4.42545865776168    1.33390330693792   -3.28674889406475
O        -4.71552989612994   -1.93546699791575    0.87116715186883
H        -4.64654211073577   -2.68819953969569    0.25445373164697
O        -1.31127089525421   -4.71207055406514    1.71529129563799
H        -1.08738262398977   -5.40429396014495    1.05933196208833
O        -2.01184379969943    0.91159880524317   -4.57448257715616
H        -2.65481749122669    0.19191644756354   -4.62389434955577
O         1.88670225308011   -1.36508921477743   -4.64171042371604
H         2.84345426446060   -1.20281031129554   -4.75880564328190
O         4.99403271644246    0.17593734718698    1.04740000129527
H         5.03512679782799    1.02892519678644    1.50676023450548
O         0.12201187818093   -5.09839021375413   -0.35692727637846
H         0.98622665072435   -5.22784642712288    0.07846064695792
O         1.50352481459338   -3.56068017685865   -3.27997512332824
H         2.42376087316685   -3.69601035924872   -3.00648420542803
O        -4.55607342407742    2.40588939347746   -0.30298844350415
H        -4.60720088359454    2.53483003178348   -1.26535067908635
O        -1.96708434929474    4.79064935729171    0.03861936198480
H        -1.99682141302581    4.91045598729882   -0.93009885978772
O        -3.38976080458146   -2.16118740228385   -3.28973808062843
H        -2.78280551912137   -2.77972937083255   -3.72315525066283
