140
 energy: -311.640906235403 gnorm: 0.000274591256 xtb: 6.4.1 (a3dbbd7)
C         2.19691600000000   -1.72604700000000   -2.66915700000000
C         0.95729900000000   -2.71163100000000   -2.40953900000000
C         1.21932200000000   -3.33908300000000   -1.00776700000000
C         2.99468200000000   -1.72451500000000   -1.31066200000000
C         2.02233800000000   -2.27033300000000   -0.31147000000000
C         3.76066600000000   -0.43778400000000   -0.89187300000000
C         3.31789400000000    0.95615100000000   -1.47600100000000
C         1.73230900000000   -0.33980300000000   -3.26068800000000
C         2.42144800000000    0.99587600000000   -2.74155300000000
C         0.27456200000000   -0.03055700000000   -3.12162600000000
C        -0.38125000000000   -2.05904500000000   -2.41582800000000
C        -0.75049500000000   -1.02100200000000   -3.45558400000000
C        -1.38585200000000   -2.32008700000000   -1.59382400000000
C        -0.00514000000000   -3.79332400000000   -0.13060200000000
C        -1.44727200000000   -3.43586900000000   -0.61786800000000
C         0.06908800000000   -3.07192600000000    1.18343200000000
C         2.52234400000000   -2.53552600000000    1.06648000000000
C         1.30309600000000   -2.84834800000000    1.99375300000000
C         3.72389200000000   -0.17817200000000    0.68980300000000
C         3.18123300000000   -1.26015200000000    1.68323900000000
C         2.65866700000000    1.67450800000000   -0.32749600000000
C         2.89202200000000    1.08087700000000    0.82987600000000
C         2.20207300000000    3.08710200000000   -0.49712600000000
C         1.23332500000000    1.89609000000000   -2.43077400000000
C         0.05716100000000    1.25902600000000   -2.72308800000000
C         1.27773300000000    3.23265600000000   -1.81064700000000
C        -1.25118800000000    1.92232700000000   -2.93323700000000
C        -2.22575200000000   -0.59566100000000   -3.11496900000000
C        -2.66659200000000   -1.66695800000000   -2.00648600000000
C        -2.41861000000000    0.91386300000000   -2.70385400000000
C        -3.47566900000000   -1.13734300000000   -0.81201200000000
C        -2.24030500000000   -3.02663400000000    0.68836800000000
C        -1.11003900000000   -2.64197600000000    1.59590600000000
C        -3.41319600000000   -1.97088200000000    0.52991300000000
C        -1.39248500000000   -1.99171300000000    2.90001300000000
C         1.07853100000000   -1.55642200000000    2.73228500000000
C         2.04993100000000   -0.68452300000000    2.52898100000000
C        -0.10955900000000   -1.40699700000000    3.61909200000000
C         2.66472300000000    1.71623800000000    2.16221700000000
C         2.13860200000000    0.64281900000000    3.20204100000000
C         1.31148600000000    3.52157800000000    0.70108900000000
C         1.58823800000000    2.84621200000000    2.10204900000000
C        -0.15356400000000    3.68341700000000   -1.27132000000000
C        -1.48331900000000    3.14107100000000   -1.95313300000000
C        -0.07041600000000    3.28505400000000    0.16400100000000
C        -2.68953000000000    1.15517200000000   -1.25148000000000
C        -3.11355300000000    0.25142200000000   -0.40180500000000
C        -2.64090500000000    2.62681900000000   -0.96879200000000
C        -3.42515000000000   -0.85176700000000    1.69710400000000
C        -2.16865200000000   -0.77458500000000    2.48927800000000
C        -3.68292800000000    0.52150100000000    0.95428300000000
C        -0.45304800000000    0.09965000000000    3.89035700000000
C         0.73817800000000    1.14921200000000    3.73227700000000
C         0.37065200000000    2.16600000000000    2.68673300000000
C        -1.61725300000000    0.33176800000000    2.94421700000000
C        -1.08455700000000    2.94908100000000    0.93889500000000
C        -2.51783900000000    2.91818600000000    0.54839400000000
C        -3.18697300000000    1.87219500000000    1.59123700000000
C        -0.85715600000000    2.38188100000000    2.22645300000000
C        -2.10543800000000    1.71322000000000    2.72853900000000
O         3.02106200000000   -2.31355000000000   -3.63591800000000
H         2.51097000000000   -3.06990600000000   -4.00197600000000
O         5.09944600000000   -0.56331600000000   -1.28805300000000
H         5.27275500000000   -1.51442000000000   -1.41193400000000
O         3.42069700000000   -3.62397600000000    1.09855800000000
H         4.13015700000000   -3.35377900000000    1.71447200000000
O         0.96695300000000   -3.70257500000000   -3.40690300000000
H         1.30458800000000   -4.51398000000000   -2.97851500000000
O         4.21943200000000   -1.70969100000000    2.51415000000000
H         4.93206700000000   -1.04628500000000    2.44715900000000
O         5.03407200000000    0.12648200000000    1.09946800000000
H         5.57153800000000    0.20725400000000    0.28822000000000
O         2.01661000000000   -4.49813400000000   -1.26548000000000
H         1.70295300000000   -5.18442900000000   -0.64307400000000
O         4.48137300000000    1.71956700000000   -1.70743300000000
H         4.84331100000000    1.47487200000000   -2.57168000000000
O         3.22060000000000    1.52009600000000   -3.76713000000000
H         2.69647500000000    1.52445600000000   -4.58066200000000
O         1.92286400000000   -0.40975500000000   -4.66591500000000
H         2.70002000000000   -0.99252700000000   -4.80241500000000
O         0.08231100000000   -5.18192600000000    0.08694500000000
H        -0.73562400000000   -5.57369800000000   -0.26379200000000
O        -1.99969600000000   -4.56938100000000   -1.22923400000000
H        -2.71864500000000   -4.26802900000000   -1.81371200000000
O        -2.09283000000000   -2.89406800000000    3.71504900000000
H        -2.03469100000000   -2.56515800000000    4.62442400000000
O         0.11024000000000   -2.06913100000000    4.83358100000000
H         0.56513400000000   -2.90110600000000    4.63358300000000
O        -2.80683800000000   -4.21169000000000    1.22520500000000
H        -2.73621000000000   -4.15198800000000    2.19325700000000
O         1.56276800000000   -3.90212600000000    2.88101000000000
H         2.24536600000000   -4.45252500000000    2.45832600000000
O        -1.00862800000000    0.24807800000000    5.17326000000000
H        -0.32732100000000    0.67712100000000    5.72702200000000
O         3.03376400000000    0.56635600000000    4.27744300000000
H         3.82006400000000    1.08648800000000    4.00059900000000
O         0.94860300000000    1.73677200000000    4.98728600000000
H         1.84735400000000    1.46316200000000    5.26611100000000
O        -4.62657800000000   -2.66244400000000    0.61002900000000
H        -4.41131200000000   -3.58386800000000    0.86058400000000
O        -4.44793800000000   -1.13133400000000    2.60178000000000
H        -5.16809400000000   -1.55013400000000    2.09776600000000
O        -2.59822500000000    2.27201200000000    3.92265600000000
H        -2.24027300000000    1.75056600000000    4.66167000000000
O         3.88687000000000    2.23061700000000    2.61331700000000
H         3.67863200000000    3.12562100000000    2.95751800000000
O         3.30013500000000    3.93971700000000   -0.61638100000000
H         4.03126900000000    3.42743500000000   -1.00863900000000
O         1.81964800000000    4.17240200000000   -2.67667400000000
H         2.44269900000000    4.71898900000000   -2.16309100000000
O        -0.15716700000000    5.09468700000000   -1.32518900000000
H        -0.97786200000000    5.36000100000000   -1.78153900000000
O        -2.01972400000000    4.19732900000000   -2.70008900000000
H        -1.64011100000000    4.12248000000000   -3.59634900000000
O        -1.25510200000000    2.37699300000000   -4.26478700000000
H        -2.16611700000000    2.24193800000000   -4.58946800000000
O        -5.08398900000000    0.60645100000000    0.76226400000000
H        -5.38968800000000    1.33638100000000    1.33300200000000
O        -4.32054300000000    2.48643600000000    2.13149400000000
H        -4.07735600000000    2.79727800000000    3.02179100000000
O        -3.50824100000000    1.44769000000000   -3.44664700000000
H        -3.95473100000000    0.69970800000000   -3.87866800000000
O        -3.02792600000000   -0.79573700000000   -4.24461300000000
H        -2.54043100000000   -1.38320700000000   -4.84578600000000
O        -3.42240800000000   -2.67976300000000   -2.63288300000000
H        -4.35267500000000   -2.39741800000000   -2.58104200000000
O        -3.02904400000000    4.18960000000000    0.81786300000000
H        -3.85887500000000    4.27435500000000    0.32426700000000
O        -0.68680800000000   -1.50477600000000   -4.77162200000000
H         0.18167500000000   -1.26515000000000   -5.13549500000000
O         4.03517100000000   -2.69821800000000   -1.43398900000000
H         3.64081800000000   -3.58423300000000   -1.35224500000000
O        -4.80565700000000   -1.10290600000000   -1.28925900000000
H        -5.34092100000000   -0.62556100000000   -0.63229500000000
O        -3.86694400000000    3.20013400000000   -1.34420000000000
H        -4.06158500000000    2.93792700000000   -2.25673400000000
O         2.03204400000000    3.83081700000000    3.00753600000000
H         1.81056700000000    4.69474000000000    2.61828700000000
O         1.44978200000000    4.91198700000000    0.90446400000000
H         0.99448100000000    5.36497100000000    0.17311500000000
