2
Lattice="2.545584412 0.0 0.0 0.0 2.545584412 0.0 0.0 0.0 3.6" Properties=species:S:1:pos:R:3:forces:R:3 energy=-7.32440544 stress="-0.025491265737985234 -5.742188395812598e-07 -2.871094197906299e-07 -5.742188395812598e-07 -0.025489280938083204 -3.557660201753457e-07 -2.871094197906299e-07 -3.557660201753457e-07 -0.03276639374115126" free_energy=-7.32495762 pbc="T T T"
Cu       0.00000000       0.00000000       0.00000000      -0.00000300       0.00000100       0.00000100
Cu       1.27279000       1.27279000       1.80000000       0.00000300      -0.00000100      -0.00000100
