148
 energy: -329.941464591882 gnorm: 0.000344493048 xtb: 6.4.1 (a3dbbd7)
C         3.00614700000000   -2.58218500000000   -0.05462300000000
C         1.61062300000000   -3.36988900000000    0.09055600000000
C         1.14292100000000   -3.13422000000000    1.54463500000000
C         3.08127400000000   -1.71529900000000    1.25976900000000
C         1.71166200000000   -1.77945800000000    1.81363800000000
C         3.68430800000000   -0.30118500000000    1.24747900000000
C         3.73610900000000    0.47614600000000   -0.11967300000000
C         3.23571100000000   -1.87039700000000   -1.46393800000000
C         3.71707300000000   -0.31365000000000   -1.46257800000000
C         2.02456400000000   -1.88555500000000   -2.49687000000000
C         0.52364400000000   -2.94836600000000   -0.82261600000000
C         0.83529500000000   -2.84818300000000   -2.27023200000000
C        -0.77697300000000   -2.98660200000000   -0.56741900000000
C        -0.39333100000000   -3.17928200000000    1.87253600000000
C        -1.37636000000000   -3.45675600000000    0.70496000000000
C        -0.89382900000000   -1.87004800000000    2.40530400000000
C         1.35601000000000   -1.17500200000000    3.11092700000000
C        -0.12753700000000   -0.99553900000000    3.01994000000000
C         2.90180800000000    0.73069900000000    2.21276400000000
C         1.95225100000000    0.23201200000000    3.35736400000000
C         2.65529300000000    1.51708700000000   -0.00052200000000
C         2.22445500000000    1.66301800000000    1.24170500000000
C         2.54685100000000    2.58765700000000   -1.02913700000000
C         2.79526200000000    0.42565700000000   -2.55355200000000
C         1.61786500000000   -0.46063700000000   -2.56150000000000
C         2.40813900000000    1.95797300000000   -2.46232000000000
C         0.36823900000000   -0.11170700000000   -2.93785800000000
C        -0.56154500000000   -2.43048900000000   -2.88151500000000
C        -1.60670500000000   -2.95486600000000   -1.81715600000000
C        -0.68422400000000   -0.97607900000000   -3.00313100000000
C        -2.93817100000000   -2.15652600000000   -1.66647700000000
C        -2.72881500000000   -2.71719500000000    1.04857300000000
C        -2.39123700000000   -1.85731500000000    2.36897600000000
C        -3.33899000000000   -1.88008400000000   -0.13240100000000
C        -2.98567200000000   -0.42199700000000    2.59559300000000
C        -0.58907700000000    0.20506300000000    3.74873400000000
C         0.68102800000000    1.19817400000000    3.68785000000000
C        -1.95227000000000    0.66756300000000    3.18724300000000
C         1.55647300000000    2.87845800000000    1.78174900000000
C         0.44488300000000    2.46575000000000    2.80034900000000
C         1.26843300000000    3.46357700000000   -0.79262400000000
C         0.82884500000000    3.76220800000000    0.68609600000000
C         0.88823000000000    2.29831800000000   -2.88969500000000
C         0.04043600000000    1.20064700000000   -3.54625800000000
C         0.26008000000000    2.73381900000000   -1.61034400000000
C        -1.94973400000000   -0.31010400000000   -3.36814400000000
C        -3.02975500000000   -0.69348900000000   -2.29982900000000
C        -1.56293700000000    1.24365100000000   -3.46076500000000
C        -3.11394900000000   -0.40812000000000    0.03859500000000
C        -3.55638700000000    0.25917600000000    1.29138200000000
C        -2.99081600000000    0.22737900000000   -1.11519100000000
C        -1.78942600000000    1.61799200000000    2.05040100000000
C        -0.74447000000000    2.38998700000000    1.89314100000000
C        -0.72543500000000    3.55849700000000    0.96286300000000
C        -3.09148300000000    1.74780600000000    1.32680800000000
C        -1.02967400000000    2.68738500000000   -1.38821500000000
C        -2.07959800000000    2.20407700000000   -2.33524100000000
C        -3.15928800000000    1.68690000000000   -1.34368500000000
C        -1.67850700000000    3.39300700000000   -0.24335000000000
C        -3.02208200000000    2.55975300000000   -0.02245900000000
O         3.99603300000000   -3.55932300000000    0.10712600000000
H         4.38561300000000   -3.71958600000000   -0.77413000000000
O         5.02040000000000   -0.37237700000000    1.66730600000000
H         5.11105900000000   -1.19230800000000    2.18674200000000
O         1.66244300000000   -2.07595600000000    4.16545600000000
H         2.16645200000000   -1.57316800000000    4.82588300000000
O         1.81769400000000   -4.72955400000000   -0.19620400000000
H         2.35764400000000   -5.09719300000000    0.52033300000000
O         2.70874000000000    0.13024000000000    4.53161400000000
H         3.36254000000000    0.84999800000000    4.51360600000000
O         3.91497000000000    1.49215600000000    2.86168100000000
H         4.76454100000000    1.20202100000000    2.46701700000000
O         1.80370100000000   -4.11976200000000    2.33149300000000
H         1.55129300000000   -3.94746900000000    3.25519100000000
O         4.90723900000000    1.25455700000000   -0.08233900000000
H         5.66293100000000    0.69000000000000   -0.30080500000000
O         2.51214600000000    3.70310100000000    2.40390400000000
H         3.27412000000000    3.15349400000000    2.65811600000000
O         3.67875000000000    3.39447000000000   -0.91135200000000
H         3.99215900000000    3.58946600000000   -1.80798700000000
O        -0.63045900000000   -4.15265400000000    2.86544100000000
H        -0.77263600000000   -4.98816900000000    2.37865400000000
O         5.03578100000000   -0.31341500000000   -1.94908800000000
H         4.98145200000000    0.04975400000000   -2.86106300000000
O         4.25329500000000   -2.61219700000000   -2.08647300000000
H         5.02604500000000   -2.01436100000000   -2.17031500000000
O        -1.57999700000000   -4.84141200000000    0.61373100000000
H        -2.53687700000000   -4.99152900000000    0.74492700000000
O        -3.64606600000000   -3.71427100000000    1.39224600000000
H        -4.49444000000000   -3.46458500000000    0.96891900000000
O        -4.74275300000000   -2.09191700000000   -0.09063300000000
H        -5.15158800000000   -1.33747000000000    0.37998600000000
O         1.48826300000000    4.68793200000000   -1.46146100000000
H         1.43465400000000    5.38179400000000   -0.77421000000000
O         1.12229600000000    5.10627100000000    0.94115600000000
H         1.89016100000000    5.11393600000000    1.54341800000000
O        -4.96589200000000    0.18100700000000    1.27922300000000
H        -5.25402700000000    0.31035100000000    2.20017700000000
O        -3.97752500000000    2.41100300000000    2.21089500000000
H        -4.29564000000000    3.20170300000000    1.73055200000000
O        -4.07780600000000    3.47789600000000    0.00923400000000
H        -4.77426100000000    3.13670200000000   -0.58171600000000
O        -4.43785000000000    1.89269200000000   -1.91276000000000
H        -4.30321300000000    2.61227600000000   -2.56584800000000
O        -2.69322500000000    3.31848000000000   -2.94695200000000
H        -2.05398000000000    3.75776500000000   -3.51895600000000
O        -2.06248600000000    1.75859800000000   -4.65456200000000
H        -2.18242300000000    1.00469000000000   -5.25849100000000
O        -0.81284200000000   -3.01842800000000   -4.12377500000000
H        -0.84343500000000   -3.97825700000000   -3.96499400000000
O        -1.88227000000000   -4.28903200000000   -2.15439700000000
H        -2.83071100000000   -4.34400700000000   -2.36709600000000
O         1.18074800000000   -4.10912300000000   -2.80153400000000
H         1.43842900000000   -4.68746900000000   -2.06362000000000
O         2.55554600000000   -2.18746000000000   -3.77851400000000
H         2.36647200000000   -3.12992200000000   -3.93888000000000
O        -3.91715100000000   -2.95834500000000   -2.25146100000000
H        -4.62451400000000   -2.36616900000000   -2.56305200000000
O        -4.30279500000000   -0.61897700000000   -2.89509200000000
H        -4.63148700000000    0.29321200000000   -2.80375400000000
O         3.26728900000000    2.69054200000000   -3.28450300000000
H         3.33255200000000    2.22919800000000   -4.13328800000000
O         0.20497300000000    3.58268200000000    3.63392600000000
H         0.55850700000000    3.36217500000000    4.51302300000000
O         0.90446900000000    1.68022200000000    4.98076000000000
H         0.53972400000000    1.00382300000000    5.58647000000000
O        -2.41209100000000   -0.71872400000000   -4.63518400000000
H        -2.01119200000000   -1.57968800000000   -4.83665200000000
O         0.39671700000000    1.09515800000000   -4.90228100000000
H         0.38192100000000    1.99723200000000   -5.25790800000000
O        -4.06444400000000   -0.50575300000000    3.48249700000000
H        -3.93666500000000   -1.30905600000000    4.01454100000000
O         3.88963800000000   -2.41144000000000    2.21398500000000
H         3.52401000000000   -3.30950800000000    2.31194600000000
O         0.90527100000000    3.37535000000000   -3.79460500000000
H         1.26652800000000    4.14328700000000   -3.31874100000000
O        -2.58035200000000    1.32788200000000    4.26146000000000
H        -3.33623900000000    1.82260000000000    3.90167800000000
O        -2.83919000000000   -2.61177600000000    3.47782100000000
H        -2.24773000000000   -3.37951600000000    3.57147100000000
O        -0.76114500000000   -0.15637000000000    5.10252900000000
H        -1.57530000000000    0.28897900000000    5.39800100000000
O        -2.01008600000000    4.66402000000000   -0.72238600000000
H        -2.10366900000000    5.24152900000000    0.05175800000000
O        -1.23678900000000    4.67291000000000    1.65424800000000
H        -0.73274500000000    4.76522400000000    2.47960300000000
O         3.48915700000000    0.30521600000000   -3.79518800000000
H         3.25142800000000   -0.55999000000000   -4.18008200000000
