132
 energy: -293.452391961811 gnorm: 0.000275939599 xtb: 6.4.1 (a3dbbd7)
C         1.74197300000000    3.31896800000000    0.17740500000000
C         0.47973600000000    3.60475100000000   -0.72102400000000
C         0.83882100000000    2.97358000000000   -2.10680800000000
C         2.30890900000000    2.08902000000000   -0.47460600000000
C         1.89908000000000    1.96182500000000   -1.72159700000000
C         3.53338400000000    1.43771700000000    0.04222800000000
C         3.35254800000000    1.10159600000000    1.55882600000000
C         1.51715200000000    3.22672800000000    1.71581400000000
C         2.29796800000000    1.97325100000000    2.37259400000000
C        -0.00452600000000    3.07524200000000    2.24873900000000
C        -0.75284800000000    2.99526000000000   -0.15203100000000
C        -1.16452400000000    3.33745400000000    1.24608700000000
C        -1.71900300000000    2.42163400000000   -0.84940200000000
C        -0.33147500000000    2.31817700000000   -2.95521800000000
C        -1.78213800000000    2.29507800000000   -2.32401600000000
C        -0.05468400000000    0.85424000000000   -3.08804300000000
C         2.43309100000000    0.98469100000000   -2.72170400000000
C         1.17644800000000    0.24301000000000   -3.04861800000000
C         3.80242300000000    0.05247300000000   -0.64168300000000
C         3.41038000000000   -0.12651800000000   -2.14471600000000
C         2.94898800000000   -0.36838100000000    1.49190600000000
C         3.12979200000000   -0.91033000000000    0.29897900000000
C         2.48484100000000   -1.08556300000000    2.72002500000000
C         1.18207600000000    1.06672700000000    2.77136400000000
C        -0.05643600000000    1.65875200000000    2.67322700000000
C         1.26642100000000   -0.27723200000000    3.03770900000000
C        -1.18977000000000    0.90665700000000    2.77545300000000
C        -2.57812700000000    2.56093500000000    1.44419100000000
C        -2.97515700000000    2.22510200000000   -0.06819900000000
C        -2.57437600000000    1.35885500000000    2.47048400000000
C        -3.62529800000000    0.84474300000000   -0.33349100000000
C        -2.42792900000000    0.91560500000000   -2.76482800000000
C        -1.19791300000000    0.09303200000000   -2.93815100000000
C        -3.47293700000000    0.22556500000000   -1.80454100000000
C        -1.09405900000000   -1.25559900000000   -2.76861200000000
C         1.28784800000000   -1.11406000000000   -2.82760400000000
C         2.68819200000000   -1.53811700000000   -2.47615000000000
C         0.14084200000000   -1.86707800000000   -2.73622100000000
C         3.13361500000000   -2.37710600000000    0.05025300000000
C         2.59703300000000   -2.71983600000000   -1.40431700000000
C         1.93880000000000   -2.54883200000000    2.49247500000000
C         2.16567400000000   -3.12797600000000    1.03491900000000
C         0.12606200000000   -1.04138900000000    3.16213700000000
C        -1.10729200000000   -0.45178100000000    3.01811900000000
C         0.38469900000000   -2.50601500000000    2.94774600000000
C        -3.22512600000000   -0.03106000000000    2.03262300000000
C        -3.10066800000000   -0.22446200000000    0.57110600000000
C        -2.42534500000000   -1.13759300000000    2.81666700000000
C        -3.22926900000000   -1.34427400000000   -1.49520100000000
C        -2.21241900000000   -2.14196400000000   -2.36905700000000
C        -2.87663000000000   -1.37518700000000   -0.03983700000000
C         0.08341600000000   -3.24066600000000   -2.14813900000000
C         1.15376100000000   -3.10532700000000   -1.10737800000000
C         0.92394700000000   -3.20650200000000    0.19615800000000
C        -1.45219600000000   -3.38922400000000   -1.67466600000000
C        -0.67008200000000   -2.80093800000000    1.92081300000000
C        -2.15736800000000   -2.54309600000000    2.11483500000000
C        -2.69393400000000   -2.68964500000000    0.62862000000000
C        -0.39543600000000   -3.22932400000000    0.69477500000000
C        -1.61402800000000   -3.56415600000000   -0.11697000000000
O         2.70609000000000    4.32339400000000   -0.07967700000000
H         2.66724200000000    4.93685600000000    0.68122800000000
O         4.64884800000000    2.25472300000000   -0.19784400000000
H         4.37022700000000    3.18098500000000   -0.10772000000000
O         3.00382000000000    1.69693900000000   -3.78704100000000
H         3.87910900000000    1.31499700000000   -3.96112100000000
O         0.25281900000000    4.98700600000000   -0.82555300000000
H         0.93780600000000    5.32722200000000   -1.42499600000000
O         4.58380500000000   -0.05940200000000   -2.91460600000000
H         5.32937600000000   -0.09058400000000   -2.27707200000000
O         5.20552300000000   -0.20548700000000   -0.54772700000000
H         5.59174400000000    0.52248200000000   -0.03097100000000
O         1.43275100000000    3.99675600000000   -2.86571800000000
H         1.90295100000000    3.57216500000000   -3.60006300000000
O         4.62202000000000    1.18590300000000    2.13899200000000
H         4.57551300000000    0.77890000000000    3.01756800000000
O         4.43169600000000   -2.88451200000000    0.23423900000000
H         5.07369700000000   -2.21497800000000   -0.04205100000000
O         3.49741000000000   -1.03216500000000    3.68886000000000
H         3.51811200000000   -1.91078300000000    4.10642200000000
O        -0.37959500000000    2.92018300000000   -4.21330900000000
H        -0.69080400000000    3.83007700000000   -4.09931700000000
O         2.97456200000000    2.46379100000000    3.51462200000000
H         2.39160200000000    2.37556900000000    4.27960100000000
O         2.02201500000000    4.41223100000000    2.26261800000000
H         2.59807800000000    4.15288400000000    3.00996500000000
O        -2.56231100000000    3.35028200000000   -2.82878200000000
H        -2.92033000000000    2.99936800000000   -3.67356200000000
O        -3.02274100000000    1.16952400000000   -4.01408200000000
H        -3.91496700000000    0.77816400000000   -3.99228700000000
O        -4.70607800000000    0.36137700000000   -2.44999500000000
H        -5.25756100000000   -0.38992500000000   -2.16745400000000
O         2.63499400000000   -3.34595600000000    3.39505500000000
H         2.59089500000000   -4.25887700000000    3.06124000000000
O         2.62998000000000   -4.45285600000000    1.18678900000000
H         3.52362000000000   -4.49186800000000    0.81139700000000
O        -2.85875400000000   -2.59173400000000   -3.52302800000000
H        -3.74740000000000   -2.88764400000000   -3.26515100000000
O        -1.98203700000000   -4.54988900000000   -2.25031700000000
H        -1.41848000000000   -4.77783300000000   -3.00864500000000
O        -1.92370700000000   -4.90586900000000    0.17536800000000
H        -2.09027500000000   -5.34917500000000   -0.67733000000000
O        -3.93895900000000   -3.33813300000000    0.61809300000000
H        -3.78317900000000   -4.20031100000000    1.04370500000000
O        -2.71720700000000   -3.56082500000000    2.89520900000000
H        -3.20829600000000   -3.11753400000000    3.61571300000000
O        -3.07673900000000   -1.39375700000000    4.03475800000000
H        -3.81293100000000   -0.76648800000000    4.10738200000000
O        -3.51906000000000    3.45362100000000    1.95210500000000
H        -3.33826700000000    4.32706500000000    1.57066600000000
O        -3.91178200000000    3.21170000000000   -0.46900700000000
H        -3.68365600000000    3.49480500000000   -1.37482000000000
O        -1.47005300000000    4.72226600000000    1.29361500000000
H        -0.93412700000000    5.17182000000000    0.61707600000000
O        -0.15371700000000    3.89811500000000    3.36911600000000
H        -0.58847600000000    4.71530400000000    3.07415300000000
O        -5.00225200000000    0.96883400000000   -0.04671600000000
H        -5.23694600000000    1.89820200000000   -0.23697500000000
O        -3.18600700000000    1.73637200000000    3.67317600000000
H        -3.72046500000000    2.52725800000000    3.49771500000000
O        -4.56669000000000   -0.10026600000000    2.42588400000000
H        -5.10474700000000    0.31299100000000    1.72822400000000
O        -4.49248100000000   -1.97624300000000   -1.64764800000000
H        -4.61199800000000   -2.58796200000000   -0.89573900000000
O         3.28097900000000   -3.84429000000000   -1.88482800000000
H         3.64244600000000   -3.60393300000000   -2.75999600000000
O         0.24737600000000   -3.32876100000000    4.07083300000000
H        -0.67365700000000   -3.61648400000000    4.12693700000000
O         3.32446000000000   -2.08308000000000   -3.60882500000000
H         4.05404400000000   -1.48282100000000   -3.85063900000000
O         0.37082200000000   -4.28523500000000   -3.04970300000000
H         1.29013600000000   -4.55500100000000   -2.92316700000000
