144
 energy: -320.796472637316 gnorm: 0.000166908884 xtb: 6.4.1 (a3dbbd7)
C        -3.27590500000000    0.24525100000000   -2.06233200000000
C        -2.47946400000000    1.61931200000000   -2.44764000000000
C        -2.40450000000000    2.41413100000000   -1.11455100000000
C        -3.68639400000000    0.44427500000000   -0.55818000000000
C        -2.75336200000000    1.46933900000000   -0.02696700000000
C        -3.89277900000000   -0.79295700000000    0.35278600000000
C        -3.14591500000000   -2.12178100000000   -0.04543500000000
C        -2.52483300000000   -1.06339400000000   -2.44172400000000
C        -2.70525700000000   -2.33839100000000   -1.54621300000000
C        -1.03913800000000   -0.96470800000000   -2.61059600000000
C        -1.08743200000000    1.45692900000000   -3.16140000000000
C        -0.42712000000000    0.14135400000000   -2.94656500000000
C         0.09693600000000    2.44178800000000   -2.80705400000000
C        -1.06109800000000    2.87985600000000   -0.69394300000000
C         0.06801900000000    2.81967800000000   -1.37593300000000
C        -0.95498000000000    3.63444100000000    0.59321800000000
C        -2.96417000000000    2.05734700000000    1.31389100000000
C        -1.75452500000000    2.99068000000000    1.77113900000000
C        -3.42009900000000   -0.52909500000000    1.87526800000000
C        -3.03312900000000    0.91641400000000    2.38203700000000
C        -2.06803700000000   -2.24157600000000    0.99245600000000
C        -2.22558900000000   -1.44310800000000    2.03029900000000
C        -1.15139300000000   -3.40968200000000    0.88175900000000
C        -1.29536600000000   -3.12363900000000   -1.69309500000000
C        -0.47203400000000   -2.34247000000000   -2.77297200000000
C        -0.49546100000000   -3.18551700000000   -0.44461400000000
C         1.10401200000000   -2.40967900000000   -2.77675900000000
C         0.95859700000000    0.18606500000000   -3.48938800000000
C         1.43289300000000    1.67721800000000   -3.16218700000000
C         1.81117000000000   -0.99291900000000   -3.00024400000000
C         2.57222700000000    1.75773800000000   -2.07133000000000
C         1.18792000000000    3.56773300000000   -0.69901800000000
C         0.61707000000000    3.73208100000000    0.76349900000000
C         2.58855400000000    2.87260800000000   -0.92002900000000
C         1.12225500000000    2.65822000000000    1.63916200000000
C        -0.95075400000000    2.02986800000000    2.60414300000000
C        -1.61545300000000    0.92675200000000    2.92570000000000
C         0.45892300000000    2.38778200000000    2.95622200000000
C        -1.43446900000000   -1.58321200000000    3.29540100000000
C        -1.00256100000000   -0.15023600000000    3.79571800000000
C         0.01837400000000   -3.44767100000000    1.92639900000000
C        -0.07328000000000   -2.32583400000000    3.01157000000000
C         0.81668000000000   -3.06411600000000   -0.34431700000000
C         1.78554900000000   -2.97518400000000   -1.46484100000000
C         1.33642500000000   -3.42320300000000    1.01615000000000
C         2.46088700000000   -0.71731100000000   -1.68655800000000
C         2.77642300000000    0.48823800000000   -1.28380600000000
C         2.97350600000000   -1.99978600000000   -1.12284600000000
C         3.19898000000000    2.13566700000000    0.34944700000000
C         2.21111600000000    1.94412000000000    1.43671600000000
C         3.72829800000000    0.74479700000000   -0.15916500000000
C         1.26945900000000    1.17377000000000    3.53879600000000
C         0.43713100000000   -0.04785800000000    3.41950500000000
C         0.83459200000000   -1.17079200000000    2.74348700000000
C         2.59037100000000    1.12748400000000    2.63465300000000
C         2.50086400000000   -2.49642600000000    1.45251600000000
C         3.49205500000000   -1.94654500000000    0.35210700000000
C         3.89581400000000   -0.43024300000000    0.87963300000000
C         2.00442800000000   -1.26115600000000    2.08314400000000
C         3.09396900000000   -0.27233600000000    2.23208800000000
O        -4.44510900000000    0.18885900000000   -2.82590800000000
H        -5.10303500000000    0.76324000000000   -2.40430900000000
O        -5.27232400000000   -1.03997600000000    0.38120400000000
H        -5.40032400000000   -1.97853400000000    0.15396000000000
O        -4.16478400000000    2.81195700000000    1.33378300000000
H        -4.26221500000000    3.12810100000000    2.24898000000000
O        -3.29692300000000    2.31042000000000   -3.34730300000000
H        -3.61850400000000    3.10455500000000   -2.87905300000000
O        -3.92160700000000    1.32810200000000    3.37847300000000
H        -4.35752300000000    0.52008200000000    3.71168800000000
O        -4.43842200000000   -0.99672500000000    2.72116000000000
H        -5.22143700000000   -1.13968800000000    2.14742800000000
O        -3.27759000000000    3.54043700000000   -1.20140900000000
H        -3.83827100000000    3.55812500000000   -0.40801500000000
O        -4.07214000000000   -3.15809900000000    0.24909700000000
H        -3.55605000000000   -3.95772400000000    0.46218500000000
O        -3.69589500000000   -3.10818000000000   -2.15894000000000
H        -3.45790900000000   -4.04315600000000   -2.03414400000000
O        -2.94758900000000   -1.40378000000000   -3.75468500000000
H        -3.90162700000000   -1.22251500000000   -3.80398300000000
O        -0.01620900000000    3.62872800000000   -3.53241300000000
H         0.55139900000000    3.53251600000000   -4.31767300000000
O        -1.28887600000000    1.55766100000000   -4.55670100000000
H        -2.14667200000000    2.00824000000000   -4.67190200000000
O         3.48024600000000    3.87400700000000   -1.32346500000000
H         4.15359600000000    3.95944500000000   -0.62543200000000
O         1.23219200000000    4.87734500000000   -1.21661200000000
H         2.08581800000000    4.97164000000000   -1.67880200000000
O        -2.24801200000000    3.99517100000000    2.61359500000000
H        -2.29832200000000    4.81179000000000    2.08963600000000
O        -1.48019000000000    4.93627100000000    0.42567500000000
H        -1.25310300000000    5.24301500000000   -0.46184500000000
O         0.98398700000000    4.95717900000000    1.33063000000000
H         1.06149800000000    5.58672300000000    0.59102900000000
O         4.26078800000000    2.92217100000000    0.83697800000000
H         4.36317700000000    2.72619200000000    1.78640800000000
O        -1.90111000000000   -4.60036300000000    0.92567100000000
H        -1.56236700000000   -5.09527300000000    1.69942200000000
O        -2.15580500000000   -2.27561500000000    4.26856400000000
H        -2.27451900000000   -1.67149200000000    5.02032200000000
O        -0.05388000000000   -4.67177000000000    2.60443200000000
H         0.63227600000000   -5.24759200000000    2.21654800000000
O         0.39213200000000   -2.86389800000000    4.22573100000000
H        -0.36987800000000   -3.29587700000000    4.64629200000000
O         3.62638100000000    1.81928800000000    3.29229100000000
H         4.06666700000000    1.16672500000000    3.86303100000000
O         1.55962600000000    1.37771800000000    4.88843700000000
H         1.69602000000000    2.33198000000000    5.01076100000000
O         0.56106200000000    3.47331800000000    3.83605700000000
H         0.46238900000000    4.29117400000000    3.32678600000000
O        -1.32058800000000   -0.00096000000000    5.15132100000000
H        -0.66066400000000    0.57901400000000    5.55370200000000
O         3.92341400000000   -0.68078300000000    3.30364600000000
H         4.09322800000000   -1.63512400000000    3.20630700000000
O         4.99016700000000    0.96730600000000   -0.75690200000000
H         5.65529700000000    0.69073000000000   -0.09621500000000
O         5.25606800000000   -0.45697800000000    1.20071900000000
H         5.53075600000000   -1.39920100000000    1.14740800000000
O         4.09445200000000   -2.39239700000000   -1.89496300000000
H         3.92704900000000   -2.14350200000000   -2.82217400000000
O         4.65455000000000   -2.71344400000000    0.43893900000000
H         4.93294900000000   -2.92272500000000   -0.47131500000000
O         1.81578800000000   -4.75205000000000    0.99348300000000
H         2.24879800000000   -4.90502500000000    0.13722300000000
O         0.89540400000000    0.02094700000000   -4.88854500000000
H         0.22780000000000    0.64302700000000   -5.22537500000000
O         2.86560500000000   -1.18035200000000   -3.92263400000000
H         2.51469400000000   -0.94094800000000   -4.79702100000000
O         1.52223900000000   -3.26461100000000   -3.80318300000000
H         0.84480800000000   -3.23467600000000   -4.49900900000000
O        -0.85717400000000   -2.86119300000000   -4.03698100000000
H        -1.70470400000000   -2.42859200000000   -4.27794100000000
O        -4.94686600000000    1.12460700000000   -0.65000600000000
H        -5.19233300000000    1.45313800000000    0.22764000000000
O        -1.55027300000000   -4.43336700000000   -2.11828200000000
H        -1.42463400000000   -4.43553000000000   -3.08667100000000
O         2.28305300000000   -4.27508400000000   -1.66712300000000
H         2.36367800000000   -4.40018600000000   -2.62922000000000
O         1.88807400000000    2.24976800000000   -4.35248800000000
H         2.85977900000000    2.24258600000000   -4.32380900000000
O         3.73959900000000    1.93229700000000   -2.84577900000000
H         4.51256900000000    1.77275400000000   -2.27658700000000
O         3.30341700000000   -3.19194300000000    2.40080400000000
H         2.71081800000000   -3.58399000000000    3.05759200000000
