140
 energy: -311.639460686629 gnorm: 0.000360625245 xtb: 6.4.1 (a3dbbd7)
C        -3.37377700000000    0.30811100000000   -1.87723400000000
C        -2.88663200000000    1.87620700000000   -1.76275900000000
C        -2.84415400000000    2.14099400000000   -0.22991100000000
C        -3.67686700000000   -0.12276000000000   -0.40389900000000
C        -2.88449300000000    0.81277900000000    0.43653600000000
C        -3.54605400000000   -1.62203100000000   -0.00443600000000
C        -2.60125800000000   -2.55684700000000   -0.87302200000000
C        -2.40142700000000   -0.59544500000000   -2.66202400000000
C        -2.26319700000000   -2.13316800000000   -2.32796700000000
C        -0.98954900000000   -0.11304200000000   -2.67717600000000
C        -1.56470200000000    2.30636200000000   -2.52658400000000
C        -0.63529100000000    1.18405200000000   -2.77959200000000
C        -0.54192700000000    3.33599800000000   -1.85168900000000
C        -1.59966400000000    2.74575100000000    0.30451600000000
C        -0.57511700000000    3.23466700000000   -0.36663100000000
C        -1.50455200000000    2.95963500000000    1.78487800000000
C        -3.07614700000000    0.82739100000000    1.90792800000000
C        -2.01501200000000    1.76026600000000    2.62557200000000
C        -2.96736100000000   -1.80471900000000    1.48196700000000
C        -2.80688500000000   -0.59650300000000    2.47876100000000
C        -1.39575500000000   -2.77316000000000   -0.00537800000000
C        -1.61412600000000   -2.40421200000000    1.24531500000000
C        -0.31371600000000   -3.70115600000000   -0.45166600000000
C        -0.74096200000000   -2.47139100000000   -2.79232100000000
C        -0.12849900000000   -1.12332700000000   -2.98394300000000
C         0.23801900000000   -3.28420000000000   -1.83852800000000
C         1.28677600000000   -0.91552500000000   -3.35524900000000
C         0.68239300000000    1.66586400000000   -3.29932400000000
C         0.90649000000000    2.90540100000000   -2.36475900000000
C         1.82675100000000    0.57633200000000   -3.42685000000000
C         1.76631800000000    2.52999800000000   -1.20610900000000
C         0.47623700000000    3.83338500000000    0.54940500000000
C         0.02411900000000    3.34539200000000    1.98113400000000
C         1.89230400000000    3.41009400000000    0.02405000000000
C         0.84403400000000    2.19286900000000    2.44935900000000
C        -0.95537300000000    0.76327200000000    2.98641900000000
C        -1.36401800000000   -0.48867700000000    2.93651900000000
C         0.32338000000000    1.27228800000000    3.52577200000000
C        -0.68222300000000   -2.78316500000000    2.34744600000000
C        -0.55604900000000   -1.64106900000000    3.42131100000000
C         0.94463300000000   -3.70564000000000    0.53173900000000
C         0.66279800000000   -2.81859600000000    1.69181000000000
C         1.47419500000000   -2.50585700000000   -1.46452500000000
C         1.98524000000000   -1.50817600000000   -2.14989500000000
C         2.16694800000000   -3.20156800000000   -0.32674000000000
C         2.99798200000000    0.65000900000000   -2.35848300000000
C         2.67145000000000    1.56523000000000   -1.22984600000000
C         3.27891300000000   -0.83593700000000   -1.88437700000000
C         2.83061700000000    2.57062000000000    0.97290500000000
C         2.06034600000000    1.87601400000000    2.05067400000000
C         3.50076000000000    1.51057600000000    0.02783700000000
C         1.43556900000000    0.18822800000000    3.73131700000000
C         0.99634800000000   -1.31773900000000    3.50150800000000
C         1.51066700000000   -1.97167500000000    2.23699600000000
C         2.62179600000000    0.66392800000000    2.78407300000000
C         3.28685000000000   -2.33812200000000    0.38680500000000
C         3.76925200000000   -1.01709400000000   -0.40935500000000
C         3.35564900000000    0.10554900000000    0.49483500000000
C         2.91752300000000   -1.78264600000000    1.82075900000000
C         2.99705200000000   -0.29102100000000    1.69912600000000
O        -4.55963400000000    0.28083400000000   -2.61766000000000
H        -5.29105000000000    0.46966700000000   -2.00808200000000
O        -4.84180400000000   -2.15009000000000   -0.01877700000000
H        -4.80367700000000   -2.98511500000000   -0.52021500000000
O        -4.39052800000000    1.25303800000000    2.23692600000000
H        -4.51193300000000    1.05309000000000    3.17963300000000
O        -3.91062100000000    2.64087800000000   -2.33000200000000
H        -4.37158100000000    3.07914300000000   -1.58796100000000
O        -3.65066800000000   -0.75706400000000    3.58922600000000
H        -3.30828700000000   -1.48277700000000    4.12796200000000
O        -3.72559100000000   -2.79597300000000    2.13598300000000
H        -4.59390100000000   -2.81132200000000    1.68759200000000
O        -3.94700200000000    2.98761900000000    0.10831700000000
H        -4.38992100000000    2.61870600000000    0.88920200000000
O        -3.28634300000000   -3.79632300000000   -0.93457000000000
H        -2.62521800000000   -4.51251300000000   -0.91900500000000
O        -3.12301000000000   -2.85200000000000   -3.15473300000000
H        -3.28245100000000   -2.27385900000000   -3.93022400000000
O        -2.77518600000000   -0.54671300000000   -4.03217300000000
H        -3.61188100000000   -0.05299200000000   -4.08523500000000
O        -0.82628600000000    4.64582500000000   -2.22024800000000
H        -0.29035600000000    4.84930400000000   -3.00678800000000
O        -1.93731500000000    2.88155300000000   -3.76280700000000
H        -2.85569400000000    3.19298900000000   -3.65110500000000
O         2.58542000000000    4.57911100000000   -0.36530600000000
H         3.32529100000000    4.66036200000000    0.27540300000000
O         0.36094700000000    5.23399100000000    0.56318300000000
H         1.12033900000000    5.58426100000000    0.06091500000000
O        -2.53828400000000    2.24420300000000    3.84439700000000
H        -2.89303400000000    3.13126100000000    3.66201600000000
O        -2.31449400000000    4.05855600000000    2.15292600000000
H        -2.15431700000000    4.77896900000000    1.53129500000000
O         0.14930300000000    4.36249500000000    2.92870300000000
H         0.18542800000000    5.20334700000000    2.43989400000000
O         3.79109300000000    3.43209700000000    1.51628100000000
H         4.66141500000000    3.03681300000000    1.32784600000000
O        -0.88116300000000   -4.98576500000000   -0.53007400000000
H        -0.38871900000000   -5.45053100000000   -1.23735500000000
O        -1.03421700000000   -4.02131000000000    2.90779400000000
H        -1.99716400000000   -4.03153600000000    3.01437100000000
O         1.21515500000000   -5.00297100000000    0.97693400000000
H         0.47855900000000   -5.28025400000000    1.54047500000000
O         3.80575400000000   -2.31882400000000    2.77328100000000
H         3.31709000000000   -2.45240500000000    3.60122700000000
O        -1.06598400000000   -2.04877700000000    4.65765800000000
H        -0.46571700000000   -2.73236400000000    4.99603700000000
O         1.54160200000000   -2.09754300000000    4.55121600000000
H         1.73945200000000   -1.48146200000000    5.28358700000000
O         1.88474000000000    0.28213200000000    5.06176000000000
H         1.32944500000000    0.96544700000000    5.48962500000000
O         0.10321100000000    1.92615000000000    4.75605500000000
H        -0.78093300000000    2.33190700000000    4.72772200000000
O         2.77245500000000   -4.32893900000000   -0.91632400000000
H         3.56915300000000   -4.53244300000000   -0.39590400000000
O         4.39261200000000   -3.18336500000000    0.51283100000000
H         4.73890600000000   -3.07250100000000    1.41559500000000
O         4.84812200000000    1.85675700000000   -0.15044100000000
H         5.33244500000000    1.05324600000000   -0.40326500000000
O         1.48622100000000    3.96201400000000   -3.08501100000000
H         2.08155900000000    4.44608600000000   -2.49412800000000
O         4.17215100000000    1.13356400000000   -2.95904500000000
H         3.94226400000000    1.32553300000000   -3.89020900000000
O         4.24828600000000   -1.39981400000000   -2.72592200000000
H         4.66159300000000   -0.65676000000000   -3.20826100000000
O         3.77249300000000    0.96996500000000    3.51624800000000
H         3.52606800000000    0.99686100000000    4.45614600000000
O         5.17421300000000   -0.98386400000000   -0.42735600000000
H         5.45989700000000   -1.61325100000000   -1.11196700000000
O         2.46743600000000    0.75981200000000   -4.65188700000000
H         1.80075000000000    1.04280400000000   -5.29723100000000
O        -0.78977000000000   -3.13473000000000   -4.02296400000000
H        -1.58324400000000   -3.69785500000000   -4.02276600000000
O        -5.04966100000000    0.25096700000000   -0.22877800000000
H        -5.27001300000000    0.19552200000000    0.71245400000000
O         0.60778000000000   -4.45952000000000   -2.51986500000000
H         1.51712100000000   -4.68367100000000   -2.24940900000000
O         1.62876900000000   -1.56307700000000   -4.54520900000000
H         1.06488600000000   -2.34581000000000   -4.64057000000000
O         0.47104800000000    2.11225900000000   -4.62319400000000
H        -0.39231200000000    2.56007800000000   -4.66031500000000
