120
 energy: -265.950102157936 gnorm: 0.000327096427 xtb: 6.4.1 (a3dbbd7)
C         2.80993700000000   -0.98989200000000   -2.25955200000000
C         1.65212500000000   -1.94943900000000   -2.76559400000000
C         1.51864700000000   -3.07223000000000   -1.66513300000000
C         2.85244100000000   -1.31184200000000   -0.79064300000000
C         2.19057400000000   -2.41563300000000   -0.47006100000000
C         3.58795200000000   -0.51458700000000    0.24366400000000
C         3.54954000000000    1.03231900000000   -0.03200100000000
C         2.67223800000000    0.57565300000000   -2.46932100000000
C         2.58024700000000    1.30308800000000   -1.13849800000000
C         1.41646600000000    1.13107200000000   -3.24435400000000
C         0.40258000000000   -1.16881600000000   -2.85969800000000
C         0.31676900000000    0.15427100000000   -3.11132800000000
C        -0.91471600000000   -1.67329700000000   -2.53668100000000
C         0.06058500000000   -3.63853100000000   -1.31238400000000
C        -1.20385300000000   -3.04323000000000   -2.07177900000000
C        -0.27984200000000   -3.34265000000000    0.11858700000000
C         2.10064300000000   -3.01636400000000    0.91089700000000
C         0.62376500000000   -3.13042200000000    1.13738800000000
C         2.80126500000000   -0.66408400000000    1.51428400000000
C         2.54854600000000   -2.01925200000000    2.06539900000000
C         3.10732800000000    1.67548400000000    1.32883100000000
C         2.51315000000000    0.49409500000000    2.07557300000000
C         2.14015200000000    2.93356400000000    1.29115500000000
C         1.70865100000000    2.30183300000000   -1.15288100000000
C         1.04699800000000    2.48453100000000   -2.50170200000000
C         1.60188000000000    3.37622400000000   -0.12266000000000
C        -0.46826700000000    2.87833400000000   -2.36637200000000
C        -1.05799300000000    0.53300100000000   -2.90889000000000
C        -1.80275700000000   -0.65829900000000   -2.59183500000000
C        -1.44879500000000    1.75579600000000   -2.57808900000000
C        -3.20414500000000   -0.62968000000000   -2.12009100000000
C        -2.38153100000000   -2.98040000000000   -1.00102200000000
C        -1.61437300000000   -3.00372100000000    0.29481800000000
C        -3.36388200000000   -1.71993400000000   -0.98734600000000
C        -2.03022700000000   -2.46107500000000    1.49022600000000
C         0.23085700000000   -2.55282500000000    2.32813900000000
C         1.38699100000000   -2.02203300000000    3.13247900000000
C        -1.09858200000000   -2.20900000000000    2.49735700000000
C         1.79831100000000    0.66636500000000    3.37509900000000
C         0.99984100000000   -0.62616800000000    3.83671900000000
C         0.87203700000000    2.61649000000000    2.03952600000000
C         0.71705800000000    1.66417600000000    3.02145100000000
C         0.08786800000000    3.79040500000000    0.09289600000000
C        -0.83695900000000    3.14250900000000   -0.90669800000000
C        -0.24592000000000    3.13703300000000    1.40767800000000
C        -2.72558900000000    2.02250900000000   -1.82399700000000
C        -3.53697000000000    0.74598300000000   -1.40892600000000
C        -2.05738100000000    2.67878800000000   -0.61312300000000
C        -3.25219000000000   -0.88169100000000    0.27324300000000
C        -3.23072400000000   -1.54812900000000    1.60800700000000
C        -3.32122200000000    0.41993100000000    0.05228000000000
C        -1.46526900000000   -1.01855300000000    3.20059400000000
C        -0.45949500000000   -0.22475900000000    3.61336400000000
C        -0.55640200000000    1.16824200000000    3.30261400000000
C        -2.88208600000000   -0.59252600000000    2.81962800000000
C        -1.50664900000000    2.65870900000000    1.70837600000000
C        -2.67207300000000    2.74708800000000    0.76307300000000
C        -3.51822000000000    1.45706300000000    1.11158000000000
C        -1.67207900000000    1.66186700000000    2.64532600000000
C        -3.01224400000000    0.98232300000000    2.54445800000000
O         4.01317000000000   -1.39882500000000   -2.86079400000000
H         3.74790400000000   -1.91218600000000   -3.65210400000000
O         4.90405500000000   -0.97215500000000    0.44469600000000
H         5.47170600000000   -0.45815100000000   -0.15353300000000
O         2.79219600000000   -4.22894900000000    0.97970300000000
H         3.46517300000000   -4.14386600000000    1.67562100000000
O         2.02466500000000   -2.50302700000000   -3.99649200000000
H         2.20871600000000   -3.44663000000000   -3.82224400000000
O         4.81932400000000    1.47672900000000   -0.42429000000000
H         5.23037400000000    1.86716400000000    0.36590800000000
O         2.30530400000000   -4.14133200000000   -2.12531300000000
H         2.00961900000000   -4.93771700000000   -1.65136500000000
O         0.08016800000000   -5.02422000000000   -1.52354100000000
H        -0.36935400000000   -5.17491600000000   -2.37793900000000
O         4.30173200000000    2.05116700000000    1.97628200000000
H         4.07727800000000    2.28840700000000    2.88831200000000
O         3.79459100000000    1.03776500000000   -3.17563700000000
H         4.46262600000000    0.32535500000000   -3.13346600000000
O         3.73700500000000   -2.49896800000000    2.66297100000000
H         4.48171500000000   -2.11986200000000    2.16793400000000
O         2.71785500000000    1.09007400000000    4.34146200000000
H         2.40132600000000    0.74081400000000    5.19248700000000
O         2.77465300000000    4.01685700000000    1.90922900000000
H         3.30042700000000    4.48033900000000    1.24063800000000
O         2.35255400000000    4.49330500000000   -0.55144600000000
H         2.38670800000000    4.48051100000000   -1.52154800000000
O        -1.55079500000000   -3.89151200000000   -3.12712700000000
H        -2.35397800000000   -4.36730800000000   -2.83503600000000
O         1.22023900000000   -0.75236700000000    5.21666700000000
H         1.29931800000000   -1.70853900000000    5.40129200000000
O         1.71639600000000   -2.93013700000000    4.15770500000000
H         2.68053600000000   -3.04712500000000    4.14315500000000
O        -4.13427200000000   -0.89572100000000   -3.13590900000000
H        -4.73995600000000   -0.13526200000000   -3.17157000000000
O         1.70136600000000    3.54675000000000   -3.16832600000000
H         1.88759300000000    3.20403900000000   -4.06847800000000
O         1.74800300000000    1.42347200000000   -4.57175400000000
H         2.71560700000000    1.29434000000000   -4.64093400000000
O        -3.13844500000000   -4.14688000000000   -1.19082100000000
H        -4.07559300000000   -3.89996800000000   -1.07038700000000
O        -4.68714600000000   -2.21638000000000   -1.04342600000000
H        -5.01506100000000   -1.96619700000000   -1.93502900000000
O        -3.59453900000000    2.89176100000000   -2.49478400000000
H        -3.06481800000000    3.60861000000000   -2.87145300000000
O        -4.90541800000000    0.95724000000000   -1.63994200000000
H        -5.20701300000000    1.66931700000000   -1.05653200000000
O        -4.88520800000000    1.73364900000000    1.12485200000000
H        -5.05217400000000    2.26933800000000    1.91743200000000
O        -0.79698600000000    3.96857500000000   -3.18548200000000
H         0.02846100000000    4.44783900000000   -3.37312800000000
O        -4.45910500000000   -2.19007900000000    1.86719600000000
H        -4.92490500000000   -2.31394200000000    1.02812300000000
O        -3.90365200000000    1.53400000000000    3.47413100000000
H        -4.12919800000000    0.82085700000000    4.10291600000000
O        -3.73596900000000   -0.89658200000000    3.89439000000000
H        -4.42474600000000   -1.49305200000000    3.55069900000000
O        -3.48949500000000    3.87468200000000    0.92538200000000
H        -2.94739900000000    4.66213000000000    0.79085600000000
O        -0.07401200000000    5.18227000000000    0.06364500000000
H         0.81320900000000    5.57825500000000    0.07926100000000
