124
 energy: -275.118888752321 gnorm: 0.000258100866 xtb: 6.4.1 (a3dbbd7)
C        -1.35913700000000   -3.41112600000000   -0.50015000000000
C         0.19686900000000   -3.69093800000000   -0.46029600000000
C         0.75249000000000   -2.98601400000000   -1.76694600000000
C        -1.48965600000000   -2.28215900000000   -1.51731600000000
C        -0.38272000000000   -2.12285200000000   -2.22494300000000
C        -2.80104300000000   -1.61923300000000   -1.81461700000000
C        -3.46765400000000   -1.15880100000000   -0.47708600000000
C        -2.10760100000000   -3.04016200000000    0.84151300000000
C        -2.74670600000000   -1.68046900000000    0.72704900000000
C        -1.26123500000000   -2.88662900000000    2.16563800000000
C         0.81464800000000   -3.07298300000000    0.74129400000000
C         0.16777900000000   -2.66149900000000    1.82977900000000
C         2.29506000000000   -2.75003600000000    0.80621300000000
C         1.88587700000000   -2.04305900000000   -1.51352500000000
C         2.59181900000000   -1.93263800000000   -0.40420000000000
C         2.40075900000000   -1.19006200000000   -2.63288000000000
C        -0.19310500000000   -1.30603700000000   -3.44919200000000
C         1.23120400000000   -0.55149000000000   -3.46647600000000
C        -2.62367500000000   -0.29868200000000   -2.66521500000000
C        -1.27738200000000   -0.14662300000000   -3.50010900000000
C        -3.27374100000000    0.33154400000000   -0.46796400000000
C        -2.82043400000000    0.79742600000000   -1.61385800000000
C        -3.67915800000000    1.15207900000000    0.70604600000000
C        -2.65285400000000   -0.95079300000000    1.82995100000000
C        -1.90375200000000   -1.65929700000000    2.94255600000000
C        -3.23791300000000    0.42101200000000    2.04280400000000
C        -0.91379500000000   -0.72617500000000    3.71718100000000
C         1.03380300000000   -1.81086200000000    2.60210200000000
C         2.46175600000000   -1.96905500000000    2.16008100000000
C         0.56190500000000   -0.87923800000000    3.40534600000000
C         3.23628900000000   -0.60737500000000    2.07510300000000
C         3.66911300000000   -0.88064000000000   -0.47408900000000
C         3.48456400000000   -0.21247900000000   -1.89781500000000
C         3.36469800000000   -0.01012500000000    0.68708800000000
C         3.12566700000000    1.33487300000000   -1.86563300000000
C         0.85180400000000    0.74541200000000   -2.85753800000000
C        -0.50818300000000    0.98483900000000   -2.89314800000000
C         1.67441200000000    1.54294400000000   -2.11853600000000
C        -2.46792600000000    2.22866800000000   -1.86570300000000
C        -1.02237700000000    2.04898500000000   -2.20120100000000
C        -2.97362100000000    2.58904500000000    0.74749900000000
C        -2.46387600000000    3.22131100000000   -0.61411100000000
C        -2.05770900000000    1.22765600000000    2.49941500000000
C        -1.04273900000000    0.71085700000000    3.26736100000000
C        -1.85541600000000    2.36162300000000    1.72074500000000
C         1.29941100000000    0.39263600000000    3.75479600000000
C         2.63565900000000    0.61404600000000    2.93424100000000
C         0.19820900000000    1.34023200000000    3.30141900000000
C         3.17047500000000    1.31152500000000    0.66989100000000
C         3.31668500000000    2.19045100000000   -0.51514200000000
C         2.51989500000000    1.71109700000000    1.87815600000000
C         1.14641100000000    2.60445400000000   -1.40953300000000
C        -0.19869800000000    2.83824900000000   -1.43028900000000
C        -0.93992100000000    3.80860200000000   -0.59087300000000
C         2.14455700000000    3.29883600000000   -0.56450500000000
C        -0.65168600000000    3.00746900000000    1.76643800000000
C         0.38490100000000    2.47544900000000    2.54273200000000
C         1.62178000000000    2.70884500000000    1.86465700000000
C        -0.16815300000000    4.00657800000000    0.76221700000000
C         1.46347700000000    3.75271100000000    0.78009700000000
O        -1.93979600000000   -4.56334300000000   -1.05435300000000
H        -2.77249000000000   -4.71996800000000   -0.56797900000000
O        -3.64352700000000   -2.49755700000000   -2.51258200000000
H        -4.44145000000000   -2.61436300000000   -1.96632900000000
O        -0.29950400000000   -2.16203300000000   -4.54566700000000
H        -0.24771600000000   -1.59249400000000   -5.33179300000000
O         0.48686400000000   -5.05651700000000   -0.46196500000000
H        -0.22655000000000   -5.49506100000000   -0.95612300000000
O        -1.57423200000000    0.07830600000000   -4.84870700000000
H        -2.54515000000000    0.07595300000000   -4.93506300000000
O        -3.70186600000000   -0.21035500000000   -3.57014400000000
H        -4.05301800000000   -1.12264700000000   -3.64837700000000
O         1.15149200000000   -3.91312200000000   -2.75224000000000
H         0.43504000000000   -4.00576500000000   -3.39656500000000
O        -3.10623900000000   -4.00416700000000    1.06298400000000
H        -2.76025400000000   -4.59267700000000    1.76309900000000
O         4.56252300000000   -0.85186700000000    2.49935500000000
H         4.50947100000000   -1.63151100000000    3.09363700000000
O         3.59670300000000    1.01201500000000    3.87987700000000
H         4.45112700000000    0.64703200000000    3.58463500000000
O         1.52711000000000    0.45637300000000    5.13788500000000
H         2.40501500000000    0.85561400000000    5.26247300000000
O         3.13696200000000   -2.77813100000000    3.09679800000000
H         3.33541500000000   -3.61837700000000    2.64187200000000
O         3.07845700000000   -3.92417900000000    0.85465500000000
H         2.65295100000000   -4.58897600000000    0.29506900000000
O        -1.38430600000000   -4.04854300000000    2.93674600000000
H        -2.03623500000000   -3.83611600000000    3.63637400000000
O        -2.84467800000000   -2.17906200000000    3.86039000000000
H        -2.53426700000000   -1.92979500000000    4.75090400000000
O        -1.13756700000000   -0.90263100000000    5.10329000000000
H        -0.40382700000000   -0.47087600000000    5.56689600000000
O        -5.06717000000000    1.27475300000000    0.64074600000000
H        -5.31292300000000    1.94935400000000    1.29676400000000
O        -4.33227500000000    0.38836500000000    2.92008800000000
H        -4.18570400000000   -0.30984500000000    3.57132200000000
O        -3.25020300000000    2.80451600000000   -2.88508600000000
H        -3.59055200000000    2.09656900000000   -3.44652800000000
O        -4.82930800000000   -1.52184600000000   -0.48769900000000
H        -5.31969500000000   -0.85542400000000    0.01624400000000
O         2.60776400000000    4.43399600000000   -1.23923500000000
H         3.10350200000000    4.95686400000000   -0.58778900000000
O        -3.90574800000000    3.45033800000000    1.34956400000000
H        -4.10396800000000    4.15415300000000    0.70725900000000
O        -3.32830600000000    4.28087400000000   -0.87897300000000
H        -3.43941900000000    4.34304700000000   -1.84095200000000
O         4.56425900000000    2.79520700000000   -0.50167600000000
H         4.71856200000000    3.08826200000000   -1.41968200000000
O         3.87394600000000    2.00295200000000   -2.84758800000000
H         4.51733000000000    1.36524800000000   -3.20230600000000
O         4.68387200000000   -0.30093700000000   -2.60097300000000
H         5.21537200000000   -1.00669100000000   -2.19936900000000
O         4.96028300000000   -1.44613500000000   -0.39373400000000
H         5.26931300000000   -1.36875200000000    0.52052700000000
O         1.63220700000000   -0.41547600000000   -4.79734000000000
H         2.45257600000000   -0.93420500000000   -4.89763300000000
O         3.14693400000000   -2.00684400000000   -3.51243300000000
H         2.71279800000000   -2.87750700000000   -3.53667300000000
O         2.08877000000000    4.94330800000000    1.16912000000000
H         1.39271600000000    5.51252000000000    1.54948700000000
O        -0.39475200000000    5.31158400000000    1.22247300000000
H        -0.79416700000000    5.80588500000000    0.48030100000000
O        -1.00675700000000    5.07230800000000   -1.22780000000000
H        -0.17979000000000    5.21179700000000   -1.70902600000000
