128
 energy: -284.281143447364 gnorm: 0.000150884422 xtb: 6.4.1 (a3dbbd7)
C         3.64166600000000    0.25307500000000   -1.11883000000000
C         3.27544400000000   -1.19288000000000   -1.77225000000000
C         2.96401700000000   -2.08297100000000   -0.50656200000000
C         3.19581500000000    0.11511900000000    0.30316000000000
C         2.92120800000000   -1.12759700000000    0.65230600000000
C         3.45081900000000    1.22234800000000    1.24888100000000
C         2.86459500000000    2.58873900000000    0.68419200000000
C         3.11565300000000    1.55924800000000   -1.79949700000000
C         2.84150000000000    2.84195900000000   -0.86522800000000
C         1.79122500000000    1.28396900000000   -2.41080800000000
C         2.16556800000000   -1.20225800000000   -2.90099600000000
C         1.38937500000000    0.07176900000000   -2.89455500000000
C         0.98704600000000   -2.29319900000000   -2.85405800000000
C         1.61957700000000   -2.72863100000000   -0.47716700000000
C         0.75507400000000   -2.78567100000000   -1.47065300000000
C         1.16425700000000   -3.46088300000000    0.76695100000000
C         2.72913300000000   -1.66588400000000    2.02509900000000
C         1.51727000000000   -2.69946700000000    2.08872100000000
C         2.68825000000000    0.97697400000000    2.61105700000000
C         2.34739700000000   -0.52458200000000    3.05124700000000
C         1.49532400000000    2.56042000000000    1.27099900000000
C         1.41121900000000    1.71696500000000    2.36509100000000
C         0.37117100000000    3.15357500000000    0.77313300000000
C         1.43220300000000    3.46936200000000   -1.45732400000000
C         0.88728000000000    2.32650200000000   -2.23568000000000
C         0.30402900000000    3.96491800000000   -0.45885500000000
C        -0.42843400000000    2.12069000000000   -2.50563600000000
C         0.05304800000000   -0.13103900000000   -3.19939100000000
C        -0.31092600000000   -1.54969300000000   -3.43230700000000
C        -0.84334100000000    0.86377000000000   -2.94957100000000
C        -1.69964100000000   -1.88666300000000   -2.75720400000000
C        -0.55416500000000   -3.41269200000000   -1.06279900000000
C        -0.39265700000000   -3.79095200000000    0.45443200000000
C        -1.57048800000000   -2.37054700000000   -1.34731500000000
C        -1.46245200000000   -3.14514600000000    1.42584300000000
C         0.42613900000000   -1.80790300000000    2.55345900000000
C         0.84481100000000   -0.71319700000000    3.18627300000000
C        -0.93229300000000   -1.99405600000000    2.21794400000000
C         0.19045600000000    1.48904500000000    2.94605500000000
C        -0.11087400000000    0.29310000000000    3.79259800000000
C        -0.86449600000000    2.87797600000000    1.32153000000000
C        -0.94938500000000    2.06319800000000    2.41486700000000
C        -1.29042000000000    3.83566600000000   -0.84895100000000
C        -1.63217800000000    2.85953900000000   -1.99424100000000
C        -2.00843200000000    3.41904700000000    0.52609700000000
C        -2.17937300000000    0.62038700000000   -2.47077100000000
C        -2.79668000000000   -0.72120500000000   -2.59696900000000
C        -2.55360900000000    1.65896900000000   -1.70997100000000
C        -2.51597100000000   -1.92949400000000   -0.53974200000000
C        -2.76835500000000   -2.48547200000000    0.80994900000000
C        -3.53037500000000   -1.05670700000000   -1.24300900000000
C        -1.85362200000000   -1.08487400000000    2.52685400000000
C        -1.65262600000000    0.04174200000000    3.47476200000000
C        -2.21324700000000    1.37922700000000    2.83212500000000
C        -3.13932500000000   -1.29143600000000    1.77782800000000
C        -3.21780600000000    2.36081300000000    0.59234000000000
C        -3.66634400000000    1.64660400000000   -0.74259800000000
C        -4.00889600000000    0.14354900000000   -0.32597600000000
C        -2.91830300000000    1.17419800000000    1.50947500000000
C        -3.34706600000000    0.01258800000000    1.02877300000000
O         5.04697300000000    0.34908400000000   -1.05864900000000
H         5.33674200000000    0.63654100000000   -1.94303800000000
O         4.82272600000000    1.33427100000000    1.51777500000000
H         5.30926100000000    1.03803900000000    0.73012100000000
O         3.92669900000000   -2.30430300000000    2.37360400000000
H         3.87552900000000   -2.48062700000000    3.32668900000000
O         4.44598800000000   -1.66262500000000   -2.37709400000000
H         4.81353500000000   -2.34583600000000   -1.78381300000000
O         3.02327700000000   -0.81007500000000    4.24529300000000
H         2.66252600000000   -0.22723400000000    4.92818700000000
O         3.40659900000000    1.61376300000000    3.63329500000000
H         4.31229700000000    1.26804500000000    3.60709100000000
O         4.00164800000000   -3.02497600000000   -0.36305000000000
H         4.16063900000000   -3.16039000000000    0.58547900000000
O         3.61961500000000    3.64549200000000    1.25014800000000
H         3.73667200000000    3.45244200000000    2.19149900000000
O         1.30816200000000   -3.35859000000000   -3.69977300000000
H         2.07674300000000   -3.04689700000000   -4.22540200000000
O        -2.28298800000000   -2.93807900000000   -3.49864800000000
H        -2.12831800000000   -2.71082100000000   -4.43553200000000
O        -0.42692000000000   -1.84541100000000   -4.79893200000000
H         0.13916900000000   -2.62845100000000   -4.95381600000000
O         2.78896900000000   -1.39380400000000   -4.14839700000000
H         3.74856500000000   -1.44103600000000   -3.98136500000000
O        -3.68672200000000   -0.72725200000000   -3.66633400000000
H        -4.27551200000000   -1.48907600000000   -3.53126700000000
O        -4.64442800000000   -1.87566400000000   -1.52908600000000
H        -5.42030400000000   -1.39139800000000   -1.16566900000000
O        -5.40496800000000    0.05000100000000   -0.20716700000000
H        -5.76302100000000    0.84502300000000   -0.65703800000000
O        -4.81628800000000    2.25994900000000   -1.25460500000000
H        -5.11360600000000    2.88345800000000   -0.55846400000000
O         4.05727400000000    1.89188900000000   -2.79534200000000
H         4.37658300000000    2.79041800000000   -2.60793000000000
O         3.84880400000000    3.77095800000000   -1.16840000000000
H         4.13829300000000    4.15525300000000   -0.31803700000000
O        -3.01374900000000    2.09308600000000    3.72533900000000
H        -3.02445600000000    1.59850100000000    4.56208500000000
O        -4.21941900000000   -1.61304700000000    2.60903000000000
H        -4.50918000000000   -2.50694800000000    2.35112100000000
O        -4.36306100000000    3.02488200000000    1.05598800000000
H        -4.05653800000000    3.73285800000000    1.64991100000000
O        -2.48397500000000    4.59105400000000    1.13819700000000
H        -2.25087800000000    5.33465300000000    0.55359400000000
O         1.79124000000000   -3.62754500000000    3.10036900000000
H         2.13226900000000   -4.42470100000000    2.65233600000000
O         1.87157800000000   -4.67851000000000    0.82348400000000
H         1.20699400000000   -5.39012700000000    0.73603800000000
O        -3.81333200000000   -3.42262100000000    0.76530800000000
H        -4.36259400000000   -3.22068300000000   -0.01132600000000
O        -0.85673800000000   -4.58408200000000   -1.79163700000000
H        -1.37993600000000   -4.32697800000000   -2.57272200000000
O        -0.54947500000000   -5.18430100000000    0.56230700000000
H        -0.79102700000000   -5.50381500000000   -0.33126300000000
O         0.11858800000000    0.46269800000000    5.16241200000000
H        -0.62865400000000    0.06350100000000    5.63220300000000
O        -2.33239400000000   -0.22650200000000    4.68190500000000
H        -3.10781900000000   -0.76709200000000    4.46588800000000
O        -1.85771600000000   -4.09208300000000    2.37900700000000
H        -1.81839300000000   -4.97042700000000    1.96895000000000
O         0.55145000000000    5.29848700000000   -0.14296800000000
H         0.66079400000000    5.77301800000000   -0.98296300000000
O         1.74404100000000    4.55528700000000   -2.28642000000000
H         2.69123900000000    4.74972800000000   -2.16271600000000
O        -1.70528700000000    5.12846600000000   -1.17285500000000
H        -2.13937700000000    5.09858900000000   -2.04028700000000
O        -2.24865000000000    3.62563000000000   -3.02038900000000
H        -2.52117000000000    3.02851800000000   -3.72702700000000
