148
 energy: -329.932014680146 gnorm: 0.000670144217 xtb: 6.4.1 (a3dbbd7)
C         3.60486300000000    0.00451400000000    1.45999500000000
C         3.30818800000000    1.59818100000000    1.19670300000000
C         3.20282000000000    1.70848400000000   -0.36262200000000
C         3.66575800000000   -0.61799600000000    0.02440800000000
C         2.91362800000000    0.33514200000000   -0.84457400000000
C         3.34126100000000   -2.12389700000000   -0.17202300000000
C         2.40762800000000   -2.81896300000000    0.88624200000000
C         2.66081700000000   -0.67720800000000    2.49554000000000
C         2.29719500000000   -2.19540100000000    2.32928800000000
C         1.32916700000000   -0.03200500000000    2.72217700000000
C         2.11744300000000    2.21427300000000    2.01017400000000
C         1.11263500000000    1.24121100000000    2.52043200000000
C         1.16927600000000    3.26211900000000    1.31187600000000
C         2.20808700000000    2.76201800000000   -0.91340900000000
C         0.97084200000000    2.91475400000000   -0.10902500000000
C         1.72426500000000    2.53865700000000   -2.39236100000000
C         2.95551400000000    0.14305300000000   -2.31078200000000
C         1.94016400000000    1.11247100000000   -3.02832000000000
C         2.61360600000000   -2.41589500000000   -1.57623600000000
C         2.47979000000000   -1.29933200000000   -2.67476200000000
C         1.12269000000000   -3.01358700000000    0.13703700000000
C         1.22299500000000   -2.84228500000000   -1.16510400000000
C        -0.00730900000000   -3.64019900000000    0.86813400000000
C         0.80867200000000   -2.32253700000000    2.95729100000000
C         0.48550700000000   -0.92296400000000    3.58263800000000
C        -0.25115300000000   -2.65400800000000    1.97045300000000
C        -1.00993200000000   -0.45049500000000    3.75123800000000
C        -0.04940800000000    1.97915800000000    3.08830100000000
C        -0.19613400000000    3.23345800000000    2.10974300000000
C        -1.26254100000000    1.06524300000000    3.31118000000000
C        -1.49885800000000    3.20462500000000    1.22588100000000
C        -0.04790100000000    3.62233300000000   -0.94175500000000
C         0.18024100000000    2.99746300000000   -2.36473300000000
C        -1.49316900000000    3.63101500000000   -0.31180300000000
C        -0.77514800000000    1.88590400000000   -2.58345900000000
C         0.73915500000000    0.21363600000000   -3.12923300000000
C         1.01372800000000   -1.06929100000000   -2.98674500000000
C        -0.52215600000000    0.81594900000000   -3.60703500000000
C         0.15748500000000   -3.25968900000000   -2.13181700000000
C         0.02168100000000   -2.14755000000000   -3.26006800000000
C        -1.35989600000000   -3.73341400000000    0.07380200000000
C        -1.25527600000000   -3.33192500000000   -1.44265900000000
C        -1.47239200000000   -2.15344500000000    1.93186600000000
C        -2.10052800000000   -1.26777200000000    2.94372200000000
C        -2.36361200000000   -2.87356700000000    0.96289100000000
C        -2.10406500000000    0.93590200000000    2.08850200000000
C        -2.18840600000000    1.86840100000000    1.17438200000000
C        -3.04200100000000   -0.20810100000000    2.25980300000000
C        -2.54892800000000    2.67631100000000   -1.00945600000000
C        -1.92158700000000    1.72106500000000   -1.95205300000000
C        -3.27565700000000    1.90755000000000    0.14936700000000
C        -1.77555400000000   -0.12197100000000   -3.55424400000000
C        -1.46057100000000   -1.61366800000000   -3.17061100000000
C        -1.81776000000000   -1.98162300000000   -1.76545500000000
C        -2.77335300000000    0.64342800000000   -2.56069100000000
C        -3.30820700000000   -1.91332100000000    0.21048900000000
C        -3.83763400000000   -0.63540700000000    0.98510900000000
C        -3.96039100000000    0.52808500000000   -0.17160300000000
C        -2.68798000000000   -1.34946900000000   -1.01839200000000
C        -3.49741600000000   -0.19976400000000   -1.49487800000000
O         4.87221600000000   -0.10148500000000    2.03989000000000
H         5.52502700000000   -0.10699700000000    1.32142800000000
O         4.57361600000000   -2.79358000000000   -0.18986700000000
H         4.50635900000000   -3.53001400000000    0.44475800000000
O         4.26056900000000    0.35484000000000   -2.82880200000000
H         4.22713500000000    0.02928500000000   -3.74658700000000
O         4.43791300000000    2.30007600000000    1.62533900000000
H         5.00557900000000    2.43073800000000    0.84445900000000
O         3.16802800000000   -1.67461500000000   -3.83431200000000
H         3.24631300000000   -2.64597100000000   -3.80863400000000
O         3.25500800000000   -3.51079100000000   -2.17649800000000
H         4.09025000000000   -3.64113400000000   -1.68056800000000
O         4.49128600000000    2.12436800000000   -0.81175700000000
H         4.65968200000000    1.74792900000000   -1.69065200000000
O         2.95241900000000   -4.12031000000000    1.05700500000000
H         2.21435800000000   -4.71742300000000    1.27911000000000
O         3.17857900000000   -2.89641100000000    3.15481400000000
H         2.69742800000000   -3.66406300000000    3.50871400000000
O         3.28274300000000   -0.52368500000000    3.76347100000000
H         4.23375200000000   -0.68159200000000    3.63571800000000
O         1.74751800000000    4.54730000000000    1.40236300000000
H         1.29896600000000    4.99893900000000    2.14363000000000
O         2.63588400000000    2.84733500000000    3.16306000000000
H         3.58439600000000    2.99339900000000    2.99489000000000
O        -1.97113600000000    4.94479500000000   -0.38349800000000
H        -2.72710400000000    4.94144000000000   -0.99860200000000
O         0.38228500000000    4.97018700000000   -1.04887800000000
H        -0.35744800000000    5.52434000000000   -0.72791400000000
O         2.36045700000000    1.29103000000000   -4.36753800000000
H         2.75102300000000    2.18539900000000   -4.41839500000000
O         2.42004300000000    3.42807600000000   -3.22223400000000
H         2.82878100000000    4.08965600000000   -2.62850900000000
O        -0.05785000000000    3.93704700000000   -3.36441800000000
H         0.34924900000000    4.76945800000000   -3.07088300000000
O        -3.45944700000000    3.48747200000000   -1.71611500000000
H        -3.84414400000000    2.95156500000000   -2.43073300000000
O         0.39226200000000   -4.90220100000000    1.34665600000000
H        -0.29154900000000   -5.53174500000000    1.04592000000000
O         0.47806200000000   -4.49698300000000   -2.68738400000000
H         0.71592300000000   -4.33372700000000   -3.61908100000000
O        -1.76527000000000   -5.07758200000000    0.10556100000000
H        -2.57260400000000   -5.10450100000000    0.65591200000000
O        -2.04019700000000   -4.23849900000000   -2.19057700000000
H        -1.93362300000000   -5.11355100000000   -1.78174600000000
O        -3.77743700000000    1.27237500000000   -3.33594100000000
H        -3.63406800000000    0.93163100000000   -4.24956400000000
O        -2.38133700000000   -0.12029400000000   -4.81360600000000
H        -1.76129200000000    0.32718100000000   -5.42224700000000
O        -0.37426600000000    1.30414300000000   -4.91766900000000
H         0.57347200000000    1.47101300000000   -5.07063400000000
O         0.25790800000000   -2.71424000000000   -4.51522100000000
H        -0.62611700000000   -2.80810900000000   -4.93001400000000
O        -4.64146000000000   -0.77595800000000   -2.09041700000000
H        -5.04605100000000   -0.08588800000000   -2.64365400000000
O        -4.26861400000000    2.76970700000000    0.67138300000000
H        -5.11850500000000    2.45813800000000    0.30222400000000
O        -5.32352800000000    0.81780400000000   -0.32644700000000
H        -5.80135400000000    0.13700900000000    0.19930900000000
O        -4.02531500000000    0.18086900000000    3.20354700000000
H        -3.59295600000000    0.72521500000000    3.88559700000000
O        -5.14779700000000   -0.94319200000000    1.37150600000000
H        -5.26593900000000   -0.61927000000000    2.28221100000000
O        -3.13371100000000   -3.81273200000000    1.67740900000000
H        -3.51437400000000   -3.37207600000000    2.45261800000000
O         0.28916300000000    2.43607100000000    4.37763500000000
H         1.15717100000000    2.87044100000000    4.31625600000000
O        -2.08846100000000    1.66514300000000    4.28820200000000
H        -1.49721000000000    2.11518900000000    4.91439100000000
O        -1.37798400000000   -0.57327500000000    5.09601700000000
H        -0.56980100000000   -0.48329300000000    5.62762900000000
O         1.01393900000000   -0.92998300000000    4.90043700000000
H         1.97615400000000   -0.75219300000000    4.82479900000000
O         5.03937100000000   -0.45403100000000   -0.35019600000000
H         5.13466700000000   -0.62558900000000   -1.29893000000000
O         0.82041500000000   -3.31578400000000    3.94398700000000
H         0.92443400000000   -2.85484500000000    4.79794200000000
O        -2.85720000000000   -2.08924700000000    3.79540600000000
H        -2.72454200000000   -1.75816700000000    4.70085500000000
O        -2.21915800000000   -2.39251600000000   -4.06877700000000
H        -2.46053700000000   -3.22106700000000   -3.61512400000000
O        -4.39480700000000   -2.71335200000000   -0.17333900000000
H        -4.88977300000000   -2.25027300000000   -0.86770400000000
O        -0.20041600000000    4.38837500000000    2.89730300000000
H        -1.12278100000000    4.69426000000000    2.95081700000000
O        -2.37089100000000    4.07968700000000    1.90979400000000
H        -3.27128000000000    3.94349100000000    1.56540000000000
O         2.91704300000000    3.99759700000000   -0.91058600000000
H         2.65833100000000    4.51146200000000   -0.12461200000000
