124
 energy: -275.118820194144 gnorm: 0.000230617093 xtb: 6.4.1 (a3dbbd7)
C        -3.67392500000000   -0.63276700000000   -0.69703400000000
C        -3.74939400000000   -0.59360300000000    0.89301100000000
C        -3.02549600000000   -1.92167100000000    1.34699200000000
C        -2.57104500000000   -1.61457200000000   -0.96706500000000
C        -2.27390800000000   -2.34781600000000    0.08886500000000
C        -2.19501000000000   -1.97657500000000   -2.35642600000000
C        -1.94779200000000   -0.67176200000000   -3.22584700000000
C        -3.49113200000000    0.72905600000000   -1.41592200000000
C        -2.62361500000000    0.69219100000000   -2.75919200000000
C        -2.81740200000000    1.80148200000000   -0.59868100000000
C        -3.08745100000000    0.61326200000000    1.46872400000000
C        -3.20029000000000    1.98846900000000    0.81735100000000
C        -2.26210100000000    0.63592400000000    2.52649600000000
C        -2.07133600000000   -1.87349400000000    2.62265600000000
C        -1.88115100000000   -0.50343000000000    3.40685600000000
C        -0.67717200000000   -2.14937900000000    2.16055600000000
C        -1.28596400000000   -3.48369500000000    0.10457700000000
C        -0.31378100000000   -2.90811800000000    1.08013000000000
C        -0.83513600000000   -2.78216700000000   -2.43007500000000
C        -0.42275300000000   -3.69694700000000   -1.22038200000000
C        -0.45621800000000   -0.54967600000000   -3.13456700000000
C         0.15275300000000   -1.68233700000000   -2.64248000000000
C         0.26372600000000    0.62081900000000   -3.22720400000000
C        -1.61146200000000    1.81493300000000   -2.49913100000000
C        -1.94868900000000    2.52861400000000   -1.30954700000000
C        -0.35139900000000    1.87902300000000   -2.96338900000000
C        -1.20717600000000    3.73117700000000   -0.84951300000000
C        -2.18087400000000    2.88158000000000    1.60803300000000
C        -1.53168600000000    1.86686300000000    2.54712300000000
C        -1.12481900000000    3.74204200000000    0.74594700000000
C        -0.25765900000000    1.89630100000000    2.97996300000000
C        -0.32437100000000   -0.48975800000000    3.83797800000000
C         0.27039300000000   -1.36964100000000    2.79525200000000
C         0.44476000000000    0.87401500000000    3.85039000000000
C         1.54853100000000   -1.31472900000000    2.30291400000000
C         0.96603000000000   -2.83685800000000    0.57563800000000
C         1.13375900000000   -3.53831600000000   -0.72013700000000
C         1.88326000000000   -2.01568100000000    1.16381100000000
C         1.46798500000000   -1.63611000000000   -2.25534200000000
C         2.18570600000000   -2.72855000000000   -1.55934400000000
C         1.59347200000000    0.67563500000000   -2.81531700000000
C         2.17279200000000   -0.44515000000000   -2.29448300000000
C         0.68962200000000    2.93684800000000   -2.65095200000000
C         0.33044600000000    3.73496900000000   -1.34681400000000
C         2.09514300000000    2.06990100000000   -2.64594900000000
C         0.24875100000000    3.19710100000000    0.97309900000000
C         0.67141400000000    2.53034300000000    2.10220300000000
C         1.00985800000000    3.13101800000000   -0.17267000000000
C         1.99856200000000    0.89336400000000    3.27418200000000
C         2.65266300000000   -0.44389700000000    2.78107000000000
C         1.85947400000000    1.80021300000000    2.10102800000000
C         3.29455600000000   -1.79883300000000    0.73916500000000
C         3.42165200000000   -1.91402100000000   -0.81617700000000
C         3.50466600000000   -0.53571900000000   -1.63206500000000
C         3.71679500000000   -0.48045700000000    1.51115000000000
C         3.00530600000000    2.11715900000000   -1.37039700000000
C         2.15666900000000    2.38001100000000   -0.18730600000000
C         2.56621800000000    1.69222300000000    0.93844400000000
C         3.88543900000000    0.81698800000000   -0.90253400000000
C         3.77101600000000    0.85361200000000    0.68301100000000
O        -4.88043400000000   -1.20018400000000   -1.18432400000000
H        -5.47932400000000   -1.23413600000000   -0.40661700000000
O        -3.19322200000000   -2.78921800000000   -2.91597300000000
H        -4.05727400000000   -2.42608500000000   -2.67547900000000
O        -1.90150400000000   -4.66734200000000    0.52140500000000
H        -1.81640900000000   -5.31092100000000   -0.20075600000000
O        -5.10820000000000   -0.62921600000000    1.25717900000000
H        -5.24262000000000   -1.46168600000000    1.74746500000000
O        -0.59893300000000   -5.03225000000000   -1.60074300000000
H        -0.75343200000000   -5.01329300000000   -2.57083400000000
O        -0.88095900000000   -3.61734300000000   -3.57071100000000
H        -1.58038500000000   -3.28245200000000   -4.15180200000000
O        -4.05461300000000   -2.84570200000000    1.59558600000000
H        -3.65966200000000   -3.57239300000000    2.10837300000000
O        -2.33860800000000   -0.99713300000000   -4.53341700000000
H        -2.83348000000000   -0.24594700000000   -4.89481500000000
O        -3.44683600000000    1.08663500000000   -3.83122900000000
H        -4.13152600000000    1.67192200000000   -3.46566400000000
O        -4.78016700000000    1.24152800000000   -1.70715100000000
H        -5.35203300000000    0.46558400000000   -1.87055800000000
O        -2.51095700000000   -2.84712000000000    3.52630200000000
H        -2.97346700000000   -2.36950000000000    4.24161100000000
O        -2.67446000000000   -0.51308300000000    4.55470200000000
H        -2.06365200000000   -0.74287000000000    5.28838700000000
O        -0.26938000000000   -1.05902700000000    5.11764700000000
H         0.10562800000000   -0.36869300000000    5.70185000000000
O         0.48847300000000    1.30755200000000    5.18231200000000
H         1.36758000000000    1.72695700000000    5.29807800000000
O         2.80161100000000    1.44580300000000    4.27695800000000
H         3.32492400000000    0.69671200000000    4.63088800000000
O         3.32182600000000   -0.98651400000000    3.88793200000000
H         4.14572500000000   -1.38640400000000    3.54395200000000
O         4.97497200000000   -0.71157900000000    2.04702100000000
H         5.43296300000000    0.15555900000000    2.04896100000000
O         4.88125300000000    1.57977400000000    1.18373400000000
H         5.45764000000000    1.78021800000000    0.42533500000000
O         5.22104500000000    1.08750200000000   -1.19239200000000
H         5.39320900000000    0.71600800000000   -2.07948300000000
O         4.46638300000000   -0.71625400000000   -2.64970800000000
H         5.05745400000000   -1.43317400000000   -2.33641100000000
O        -1.86572500000000    4.86337200000000   -1.31409100000000
H        -1.64031900000000    5.57516600000000   -0.68630900000000
O         0.76166000000000    5.05826400000000   -1.48372000000000
H         0.40212900000000    5.38417400000000   -2.32394700000000
O        -1.21668700000000    5.08274300000000    1.13653400000000
H        -1.86215400000000    5.11641900000000    1.87010500000000
O         0.74983200000000    3.86716400000000   -3.69445400000000
H         1.46461600000000    3.57171800000000   -4.28974500000000
O        -2.89181400000000    3.79672200000000    2.40574700000000
H        -3.82904600000000    3.72519800000000    2.15466000000000
O         2.78898200000000   -3.61608800000000   -2.46678900000000
H         2.62167000000000   -4.51297200000000   -2.11226300000000
O         4.58930700000000   -2.63037100000000   -1.08128400000000
H         4.35415400000000   -3.26709300000000   -1.79522200000000
O        -4.49171200000000    2.54652000000000    0.93836400000000
H        -5.02600300000000    2.23438400000000    0.19399100000000
O         2.84668700000000    2.47930800000000   -3.75551300000000
H         3.62785400000000    2.94849700000000   -3.40292900000000
O         3.94177100000000    3.16387300000000   -1.56311300000000
H         3.54247300000000    3.99004500000000   -1.25990100000000
O         1.67295200000000   -4.83277500000000   -0.56570100000000
H         0.94854500000000   -5.46570800000000   -0.72327600000000
O         4.07016000000000   -2.80992300000000    1.34561900000000
H         3.90535400000000   -3.64675100000000    0.89447900000000
