132
 energy: -293.452996631370 gnorm: 0.000176165890 xtb: 6.4.1 (a3dbbd7)
C         0.66362200000000   -2.93526800000000   -2.06379800000000
C        -0.67925000000000   -3.44227400000000   -1.36680900000000
C        -0.22265700000000   -3.60324100000000    0.16423100000000
C         1.51292400000000   -2.41964700000000   -0.93246500000000
C         1.03797600000000   -2.80064600000000    0.24121100000000
C         2.92841000000000   -2.00438100000000   -1.17495400000000
C         3.01405100000000   -0.90692000000000   -2.28116300000000
C         0.57947200000000   -1.97449600000000   -3.26740900000000
C         1.75057400000000   -0.85192000000000   -3.24963100000000
C        -0.76890600000000   -1.12450900000000   -3.41974100000000
C        -1.97406800000000   -2.59468500000000   -1.53774300000000
C        -2.09932000000000   -1.58609200000000   -2.74476600000000
C        -2.32167900000000   -1.77971800000000   -0.31906200000000
C        -1.14081100000000   -3.20857600000000    1.37503300000000
C        -2.44380100000000   -2.44057400000000    1.00912700000000
C        -0.44165800000000   -2.22448900000000    2.30593100000000
C         1.84035300000000   -2.78058100000000    1.49664800000000
C         0.97028900000000   -2.43447800000000    2.75998800000000
C         3.57267500000000   -1.36815700000000    0.10453700000000
C         2.75471000000000   -1.60662500000000    1.33969400000000
C         3.19649200000000    0.37027400000000   -1.44645600000000
C         3.49298500000000    0.11026200000000   -0.18638700000000
C         2.93112800000000    1.74510900000000   -1.99887600000000
C         0.99473400000000    0.37713200000000   -2.86680700000000
C        -0.36673000000000    0.20723900000000   -2.91257700000000
C         1.50453500000000    1.55350600000000   -2.38617200000000
C        -1.19445600000000    1.20463700000000   -2.49450900000000
C        -3.00433500000000   -0.38763000000000   -2.09177100000000
C        -2.90292500000000   -0.63185700000000   -0.62483800000000
C        -2.66692700000000    1.10044100000000   -2.41820000000000
C        -3.70231900000000    0.21569400000000    0.29147900000000
C        -2.66497200000000   -1.41035100000000    2.16586300000000
C        -1.25368600000000   -1.26089300000000    2.71788800000000
C        -3.30515200000000   -0.03068700000000    1.78315300000000
C        -0.90495400000000   -0.23518200000000    3.74660500000000
C         1.64314400000000   -1.15052900000000    3.38407200000000
C         2.58769000000000   -0.68654500000000    2.27632200000000
C         0.66390800000000   -0.02135500000000    3.90036400000000
C         3.82955600000000    1.11939300000000    0.85902200000000
C         3.22304600000000    0.67906700000000    2.26197500000000
C         2.88211100000000    2.93856000000000   -0.94537200000000
C         3.20740400000000    2.54433300000000    0.55524100000000
C         0.67379900000000    2.53610000000000   -1.89642300000000
C        -0.68128100000000    2.35828200000000   -1.94618900000000
C         1.40586100000000    3.62696900000000   -1.20165000000000
C        -3.03268400000000    2.25328000000000   -1.34989800000000
C        -3.42342100000000    1.76518400000000    0.07736300000000
C        -1.73105600000000    3.25034100000000   -1.39021000000000
C        -2.31555600000000    1.07353700000000    2.03219900000000
C        -1.48833800000000    1.16291700000000    3.29202000000000
C        -2.35219400000000    2.02029100000000    1.09810900000000
C         0.89511700000000    1.23107000000000    3.10040100000000
C         2.02199100000000    1.56838100000000    2.38801600000000
C         1.96926300000000    2.53313600000000    1.39506700000000
C        -0.27617800000000    1.91652000000000    2.85576600000000
C         0.50722100000000    4.09195900000000   -0.00187200000000
C        -1.15682500000000    3.98254600000000   -0.11893200000000
C        -1.59345000000000    3.31486500000000    1.22704900000000
C         0.80191100000000    3.21383500000000    1.16049400000000
C        -0.31964500000000    2.89317700000000    1.89218500000000
O         1.35698900000000   -4.10737500000000   -2.49120100000000
H         1.21348400000000   -4.16245500000000   -3.45616500000000
O         4.16942900000000   -1.09190600000000   -3.04696900000000
H         4.49083500000000   -1.99501300000000   -2.88153500000000
O        -1.00457300000000   -4.69496000000000   -1.87505600000000
H        -0.19970200000000   -5.23661500000000   -1.84961600000000
O         2.20134500000000   -0.79340100000000   -4.57325800000000
H         3.00353200000000   -0.25168200000000   -4.58938300000000
O         0.71832800000000   -2.76838300000000   -4.40491000000000
H         0.54039900000000   -2.18050100000000   -5.16082000000000
O         0.19101500000000   -4.94722700000000    0.33986300000000
H        -0.40559900000000   -5.32566000000000    1.01877900000000
O         3.68633200000000   -3.13497600000000   -1.54596100000000
H         3.07457500000000   -3.76420200000000   -1.97803300000000
O         2.48701000000000   -4.01973400000000    1.67437500000000
H         1.99544400000000   -4.68008500000000    1.15179100000000
O        -1.46817200000000   -4.37973100000000    2.07958100000000
H        -2.42927800000000   -4.51065300000000    1.97705100000000
O        -3.52027700000000   -3.35274500000000    0.97281400000000
H        -4.07951600000000   -3.12907400000000    1.74638000000000
O        -3.48342400000000   -2.06424300000000    3.10181500000000
H        -4.05725500000000   -1.38723500000000    3.50120800000000
O         1.04017000000000   -3.47738000000000    3.69235000000000
H         1.63753500000000   -4.15042000000000    3.30261700000000
O        -1.47282000000000   -0.60091600000000    4.96969600000000
H        -0.81099200000000   -0.36068900000000    5.64932400000000
O        -4.43161700000000    0.15413100000000    2.61049300000000
H        -5.06015800000000    0.70959200000000    2.12672000000000
O         0.89271100000000    0.20023800000000    5.26962500000000
H         1.64803500000000   -0.36959100000000    5.51999600000000
O         2.43706300000000   -1.55706100000000    4.47879800000000
H         2.13259100000000   -2.46401600000000    4.69950400000000
O         3.74240800000000    2.05234600000000   -3.09346900000000
H         4.47521200000000    2.60187000000000   -2.77980500000000
O         5.22180900000000    1.27576200000000    0.93474800000000
H         5.60985600000000    0.40989100000000    1.11854700000000
O         4.90979700000000   -1.75895000000000    0.27390300000000
H         4.98920800000000   -2.66794100000000   -0.05205000000000
O         4.21782200000000    0.83009400000000    3.23723700000000
H         3.92613900000000    0.39023700000000    4.04491500000000
O         3.84640100000000    3.86261500000000   -1.35473400000000
H         4.22814500000000    4.22852900000000   -0.52585400000000
O         4.09519200000000    3.52312200000000    1.05637300000000
H         4.89191300000000    3.05377600000000    1.35954500000000
O        -2.85312800000000   -2.17113000000000   -3.76319400000000
H        -3.37690800000000   -2.88409900000000   -3.35789700000000
O        -0.97920800000000   -0.99240400000000   -4.80620000000000
H        -1.80316400000000   -1.46233700000000   -5.01891400000000
O        -4.34199300000000   -0.61821900000000   -2.46551700000000
H        -4.42162600000000   -0.27531900000000   -3.37371500000000
O        -3.28562300000000    1.39148700000000   -3.64499300000000
H        -3.92419300000000    2.10913800000000   -3.47807300000000
O        -4.11942200000000    2.96995800000000   -1.86509900000000
H        -3.71547000000000    3.78884400000000   -2.24551800000000
O        -4.56613200000000    2.44789500000000    0.53604900000000
H        -5.01327600000000    2.82995500000000   -0.23726800000000
O        -2.22041900000000    1.77698000000000    4.31362800000000
H        -2.49509500000000    1.06626700000000    4.92094100000000
O        -2.34365800000000    4.25122200000000    1.96747500000000
H        -2.58733900000000    3.83955600000000    2.80719000000000
O        -1.63904000000000    5.29213500000000   -0.18172500000000
H        -1.78907000000000    5.59706900000000    0.72561300000000
O         0.80165300000000    5.41504700000000    0.30847400000000
H         1.00096200000000    5.85638600000000   -0.53660100000000
O         1.59083000000000    4.75144700000000   -2.02049400000000
H         2.53761200000000    4.78462400000000   -2.25100200000000
O        -5.06502700000000   -0.07063700000000    0.13455400000000
H        -5.22129000000000   -0.28452200000000   -0.80126500000000
O        -2.07555100000000    4.23560300000000   -2.34137700000000
H        -1.90908800000000    5.10171700000000   -1.92926700000000
O        -3.05861400000000   -3.48536800000000   -1.72936800000000
H        -3.28359200000000   -3.90639000000000   -0.88818200000000
