152
 energy: -339.011572285502 gnorm: 0.000311681601 xtb: 6.4.1 (a3dbbd7)
C         3.77565400000000    0.37091500000000    1.26188600000000
C         3.49960800000000    1.54658000000000    0.22555500000000
C         3.44270400000000    0.89199000000000   -1.18065100000000
C         3.63009900000000   -0.94264700000000    0.37096800000000
C         2.91730900000000   -0.47278900000000   -0.86785900000000
C         3.10360800000000   -2.26407600000000    0.99564400000000
C         2.14573600000000   -2.13161200000000    2.20782800000000
C         2.98532300000000    0.46388500000000    2.65003900000000
C         2.13503500000000   -0.82412000000000    3.05416500000000
C         1.93696600000000    1.65362100000000    2.90530200000000
C         2.23516200000000    2.26790600000000    0.48936600000000
C         1.91374500000000    2.77035100000000    1.85784000000000
C         1.47856200000000    2.81126900000000   -0.44640500000000
C         2.70533700000000    1.64116700000000   -2.35497900000000
C         1.71483700000000    2.80433400000000   -1.91163500000000
C         1.81492700000000    0.66657200000000   -3.23715600000000
C         2.86574800000000   -1.44030000000000   -1.98803200000000
C         2.04383000000000   -0.88545300000000   -3.22053700000000
C         2.32792900000000   -3.23767400000000   -0.05177000000000
C         2.13328300000000   -2.74177800000000   -1.52825900000000
C         0.79390300000000   -2.48573800000000    1.66397500000000
C         0.94405300000000   -3.58332300000000    0.68008500000000
C        -0.35175100000000   -2.16421300000000    2.21982100000000
C         0.71688000000000   -0.31427600000000    3.14131000000000
C         0.60738700000000    0.98507600000000    3.02957500000000
C        -0.39614800000000   -1.24788000000000    3.40143500000000
C        -0.61602600000000    1.75261500000000    3.36253100000000
C         0.52470600000000    3.53298300000000    1.69033200000000
C         0.46467400000000    3.75706900000000    0.10497300000000
C        -0.76986300000000    2.89096200000000    2.30665800000000
C        -0.90529900000000    3.57241300000000   -0.57845400000000
C         0.38160400000000    2.57552800000000   -2.68209200000000
C         0.42687200000000    1.09097700000000   -2.84864600000000
C        -0.93529100000000    3.18597500000000   -2.10534600000000
C        -0.64836600000000    0.35587100000000   -2.95492800000000
C         0.69590400000000   -1.74327600000000   -3.22273200000000
C         0.71637200000000   -2.41555200000000   -1.89610000000000
C        -0.63665600000000   -1.02488400000000   -3.50861700000000
C        -0.34773300000000   -3.76814200000000   -0.14569000000000
C        -0.37552600000000   -2.86586100000000   -1.33151300000000
C        -1.67699400000000   -2.77865100000000    1.96658200000000
C        -1.76291900000000   -3.47285600000000    0.56072800000000
C        -1.85347300000000   -0.67290100000000    3.44688000000000
C        -2.00162400000000    0.91180700000000    3.31511500000000
C        -2.68214500000000   -1.61291400000000    2.41471400000000
C        -1.65338500000000    2.19200400000000    1.31694300000000
C        -1.70709600000000    2.48325000000000    0.04454000000000
C        -2.75382100000000    1.47552800000000    2.03682200000000
C        -2.28575200000000    2.25369100000000   -2.26033100000000
C        -2.03047400000000    0.89840200000000   -2.98430300000000
C        -2.87156100000000    2.17206200000000   -0.82210200000000
C        -1.99689800000000   -1.64562000000000   -2.95519300000000
C        -1.77054900000000   -2.75412400000000   -1.86816800000000
C        -2.58548700000000   -2.67142000000000   -0.53128700000000
C        -2.91291100000000   -0.34266600000000   -2.59927900000000
C        -3.39139700000000   -0.96925000000000    1.19180900000000
C        -3.68431600000000    0.56472900000000    1.18405900000000
C        -3.76228800000000    0.95976700000000   -0.40306900000000
C        -2.80011900000000   -1.25812300000000   -0.15728500000000
C        -3.51037100000000   -0.39632300000000   -1.15012500000000
O         5.14009000000000    0.45745700000000    1.58975200000000
H         5.40704000000000    1.37734000000000    1.36597800000000
O         4.21194900000000   -2.97707700000000    1.49443700000000
H         4.99484500000000   -2.62712300000000    1.02459000000000
O         4.17938100000000   -1.72720400000000   -2.40955800000000
H         4.10363900000000   -2.21961600000000   -3.24229600000000
O         4.55385500000000    2.47804400000000    0.29414100000000
H         5.09686100000000    2.34554900000000   -0.50313800000000
O         2.54323000000000   -3.76147300000000   -2.42223700000000
H         2.92146100000000   -4.47516200000000   -1.87737500000000
O         3.06098000000000   -4.42549300000000   -0.13232800000000
H         3.75426200000000   -4.37488600000000    0.55852800000000
O         4.82412000000000    0.80878400000000   -1.57609800000000
H         4.85459100000000    0.49964700000000   -2.49431200000000
O         2.40731300000000   -3.21997300000000    3.08329700000000
H         3.28461800000000   -3.09711000000000    3.47363000000000
O         2.51857500000000   -1.20201700000000    4.36081500000000
H         3.10309400000000   -0.49001100000000    4.69146800000000
O         3.94635900000000    0.63115800000000    3.65251100000000
H         4.82168200000000    0.47471600000000    3.23758900000000
O         3.68548300000000    2.19479800000000   -3.18346700000000
H         3.71402800000000    3.15163000000000   -3.00681200000000
O         2.25681400000000    4.06111200000000   -2.27148700000000
H         1.83611900000000    4.28867200000000   -3.12639000000000
O         0.59423900000000    3.16352200000000   -3.96739900000000
H        -0.27942100000000    3.34032500000000   -4.35006300000000
O        -1.13524900000000    4.35565600000000   -2.84608000000000
H        -1.83069800000000    4.85510200000000   -2.38570400000000
O        -0.41986000000000    2.27146100000000    4.65240800000000
H        -1.31524300000000    2.35380800000000    5.03930000000000
O        -1.53181900000000    3.92112700000000    2.90555200000000
H        -0.95410600000000    4.69627200000000    2.99866900000000
O        -2.71400300000000    1.38396500000000    4.42337600000000
H        -3.06772000000000    0.61247100000000    4.90017200000000
O        -2.37754900000000   -0.96932300000000    4.71418200000000
H        -1.74079500000000   -1.55475300000000    5.16307800000000
O        -1.61137300000000    4.78463100000000   -0.42090400000000
H        -0.94896200000000    5.46365800000000   -0.19571800000000
O        -0.16644500000000   -1.96639100000000    4.59822200000000
H         0.79229600000000   -2.08610500000000    4.70039700000000
O         2.27246600000000    2.24464300000000    4.14447000000000
H         1.44447500000000    2.42768500000000    4.62303200000000
O         0.65316400000000    4.77531800000000    2.31663800000000
H         1.57331100000000    5.06404300000000    2.17467600000000
O         2.89662500000000    3.71753200000000    2.19695100000000
H         3.12166900000000    3.54671400000000    3.13409500000000
O         0.88853000000000    5.08914000000000   -0.11952100000000
H         1.47976000000000    5.09456900000000   -0.89125200000000
O        -2.20185200000000    1.15982600000000   -4.35870100000000
H        -3.15748000000000    1.17779900000000   -4.52772800000000
O        -3.97694200000000   -0.31947300000000   -3.49745900000000
H        -4.78509900000000   -0.52407700000000   -2.98236200000000
O        -3.82259400000000   -3.31694300000000   -0.73656300000000
H        -3.63353100000000   -4.04092800000000   -1.36926100000000
O        -5.06457800000000    1.35481400000000   -0.69167800000000
H        -5.55016800000000    1.37720200000000    0.15761400000000
O        -2.09724700000000   -4.01526100000000   -2.41270900000000
H        -2.26392300000000   -3.87648800000000   -3.36304400000000
O        -2.63221900000000   -2.29555700000000   -4.01829800000000
H        -2.50324800000000   -1.71917200000000   -4.79452200000000
O        -4.96440500000000    0.75019400000000    1.70936800000000
H        -5.42575800000000   -0.10789700000000    1.60050700000000
O        -3.17987800000000    2.93988200000000   -3.08082000000000
H        -3.81109400000000    3.39440200000000   -2.49810900000000
O        -4.66679500000000   -1.60019100000000    1.10163300000000
H        -4.74072200000000   -2.21433500000000    1.86121000000000
O        -2.39681200000000   -4.70280400000000    0.76261300000000
H        -1.97702500000000   -5.31682000000000    0.12038600000000
O        -3.69110400000000   -2.21641600000000    3.17481200000000
H        -3.26555600000000   -2.97415300000000    3.62621400000000
O         2.77810800000000   -1.25504700000000   -4.35153800000000
H         2.60562700000000   -0.58782500000000   -5.03599900000000
O         4.95097800000000   -1.31259400000000   -0.01202400000000
H         5.29246800000000   -0.64727400000000   -0.63704600000000
O        -0.38164200000000   -5.09998300000000   -0.60596000000000
H         0.24389700000000   -5.60039300000000   -0.05350500000000
O         0.79077900000000   -2.73409800000000   -4.22424100000000
H         1.52539300000000   -3.32340300000000   -3.98624600000000
O         1.10097300000000   -4.80801200000000    1.36793800000000
H         1.64981700000000   -4.63998900000000    2.15362300000000
O        -1.80586500000000   -3.78568000000000    2.95234100000000
H        -2.09099600000000   -4.59227400000000    2.47644900000000
O         1.99853100000000    1.01030200000000   -4.59406200000000
H         1.60447200000000    1.88750300000000   -4.74278300000000
O        -0.76122800000000   -0.91625100000000   -4.90785100000000
H        -0.22297800000000   -1.63280200000000   -5.28697400000000
O        -3.69849500000000    3.32427900000000   -0.70256800000000
H        -4.00510700000000    3.38281500000000    0.21410100000000
O        -3.64953700000000    2.49627800000000    2.42059200000000
H        -3.16624200000000    3.15610500000000    2.94410100000000
O        -4.81799400000000   -0.94304700000000   -1.32208800000000
H        -4.79511200000000   -1.89944800000000   -1.12167000000000
