148
 energy: -329.931171708244 gnorm: 0.000160184237 xtb: 6.4.1 (a3dbbd7)
C         3.15607300000000   -2.10071100000000    0.99127600000000
C         2.49294400000000   -1.73452500000000    2.43372200000000
C         2.55914300000000   -0.18137700000000    2.51115000000000
C         3.63076100000000   -0.71454500000000    0.42743300000000
C         2.82532900000000    0.31801300000000    1.14200400000000
C         3.78046700000000   -0.51856300000000   -1.09571200000000
C         2.90123100000000   -1.42912300000000   -2.03278700000000
C         2.27091200000000   -2.98626200000000    0.07030100000000
C         2.36971300000000   -2.81099300000000   -1.48500300000000
C         0.79697400000000   -2.96213800000000    0.33293700000000
C         1.06396800000000   -2.32343200000000    2.71953300000000
C         0.28563600000000   -2.69229400000000    1.50621300000000
C         0.00366100000000   -1.44752600000000    3.49270900000000
C         1.28721200000000    0.52551500000000    2.79458800000000
C         0.13281700000000   -0.01572700000000    3.13869500000000
C         1.31243800000000    2.02217600000000    2.88737900000000
C         3.17914100000000    1.75276400000000    1.02796800000000
C         2.15227300000000    2.74408000000000    1.77634000000000
C         3.40688700000000    0.98139200000000   -1.53810400000000
C         3.12330300000000    2.11244000000000   -0.47669900000000
C         1.86626200000000   -0.47921200000000   -2.55620400000000
C         2.14044100000000    0.79096000000000   -2.34172000000000
C         0.83210400000000   -1.02542900000000   -3.47108500000000
C         0.88414000000000   -3.17916800000000   -2.01673000000000
C         0.09140000000000   -3.69526700000000   -0.76656700000000
C         0.14228800000000   -2.03549300000000   -2.60439200000000
C        -1.48112800000000   -3.59091600000000   -0.71770700000000
C        -1.11191500000000   -3.02731600000000    1.89514500000000
C        -1.41744300000000   -2.00054100000000    3.08233100000000
C        -2.05230600000000   -3.06861300000000    0.68251800000000
C        -2.49004000000000   -0.90237100000000    2.71452900000000
C        -0.87185800000000    1.02032800000000    3.56032900000000
C        -0.22978300000000    2.34191900000000    2.98406500000000
C        -2.33972500000000    0.63008900000000    3.15163300000000
C        -0.76041200000000    2.63979900000000    1.64046400000000
C         1.38184200000000    3.42261500000000    0.57629600000000
C         1.70065300000000    2.58792000000000   -0.61202300000000
C        -0.11329300000000    3.69083900000000    0.79723900000000
C         1.40207400000000    1.91175000000000   -3.00023400000000
C         1.16157300000000    3.04599800000000   -1.91885400000000
C        -0.28703600000000   -0.01508500000000   -3.91422200000000
C        -0.03399300000000    1.47300300000000   -3.47436700000000
C        -1.14294200000000   -1.77362800000000   -2.45260400000000
C        -2.15232200000000   -2.63408900000000   -1.78555600000000
C        -1.62484800000000   -0.69254600000000   -3.37442800000000
C        -2.60212100000000   -1.72332000000000    0.35098700000000
C        -2.77440800000000   -0.77868300000000    1.24065200000000
C        -3.21098300000000   -1.76784300000000   -1.00815100000000
C        -2.94774300000000    1.46309000000000    1.94393300000000
C        -1.93240200000000    2.23883700000000    1.18941600000000
C        -3.63562300000000    0.41919900000000    0.99565900000000
C        -1.02611400000000    3.75787700000000   -0.50427200000000
C        -0.39498200000000    3.26020500000000   -1.84643000000000
C        -0.88333700000000    1.93064600000000   -2.32813800000000
C        -2.35035000000000    2.95943700000000   -0.05629900000000
C        -2.65345400000000    0.23751300000000   -2.69802600000000
C        -3.63034600000000   -0.39243400000000   -1.61799900000000
C        -3.85894400000000    0.80590300000000   -0.51477000000000
C        -2.00848200000000    1.36380700000000   -1.97305800000000
C        -2.99972500000000    2.00742900000000   -1.07733000000000
O         4.28806800000000   -2.89046100000000    1.21055100000000
H         4.99835600000000   -2.31498400000000    1.53181100000000
O         5.13385600000000   -0.72557700000000   -1.40095300000000
H         5.16371900000000   -1.36756500000000   -2.13377900000000
O         4.46834900000000    1.97248900000000    1.57377600000000
H         4.50035500000000    2.92267500000000    1.80333000000000
O         3.34018700000000   -2.27053600000000    3.40881900000000
H         3.72195500000000   -1.51181800000000    3.89252000000000
O         3.99807600000000    3.20270800000000   -0.69244600000000
H         4.40582800000000    3.06102700000000   -1.56873700000000
O         4.42286900000000    1.44923800000000   -2.38385800000000
H         5.15972200000000    0.80727800000000   -2.30540200000000
O         3.53117200000000    0.19812900000000    3.47733100000000
H         4.19665800000000    0.75621400000000    3.03798100000000
O         3.74190800000000   -1.73377500000000   -3.13612500000000
H         3.16626100000000   -1.85962800000000   -3.91262800000000
O         3.24872500000000   -3.79806100000000   -1.93512300000000
H         2.91817800000000   -4.10900100000000   -2.79612300000000
O         2.60088600000000   -4.33529900000000    0.36931800000000
H         3.56819800000000   -4.38486000000000    0.44605300000000
O         0.20396500000000   -1.53543600000000    4.87118700000000
H        -0.41976600000000   -2.20661200000000    5.20164400000000
O         1.21421800000000   -3.52065900000000    3.45477600000000
H         2.10828900000000   -3.48760200000000    3.84400700000000
O        -3.14591900000000    0.82257900000000    4.28028900000000
H        -3.76003000000000    1.54949900000000    4.07403200000000
O        -0.80135100000000    1.16269400000000    4.96174200000000
H        -1.67045300000000    0.89494500000000    5.31595000000000
O         2.91625400000000    3.75410400000000    2.37295300000000
H         2.82370300000000    3.65674300000000    3.33638000000000
O         1.91380000000000    2.37487200000000    4.12183100000000
H         1.55292400000000    1.79527000000000    4.80622900000000
O        -0.48047900000000    3.42463000000000    3.82030900000000
H        -0.54366200000000    3.06462300000000    4.72365400000000
O        -3.89750600000000    2.35394000000000    2.48106100000000
H        -3.97729400000000    3.11019800000000    1.87496700000000
O         1.46582500000000   -1.60898100000000   -4.58452100000000
H         1.03562400000000   -1.22183000000000   -5.37138800000000
O         2.13306600000000    2.39353800000000   -4.08447300000000
H         2.46235600000000    3.27604400000000   -3.83118300000000
O        -0.31360700000000   -0.01990600000000   -5.31834400000000
H        -1.16684500000000   -0.42403600000000   -5.57191100000000
O        -0.39427800000000    2.31368400000000   -4.55137400000000
H        -0.13056000000000    1.86041700000000   -5.36955700000000
O        -3.33292000000000    3.91482900000000    0.29358300000000
H        -2.97994300000000    4.76817200000000   -0.05378900000000
O        -1.39778700000000    5.08896700000000   -0.68959900000000
H        -1.02839600000000    5.57668200000000    0.08256800000000
O        -0.25109400000000    4.92204100000000    1.46937800000000
H         0.63454500000000    5.31795000000000    1.53770800000000
O         1.78063300000000    4.23365100000000   -2.34479500000000
H         1.05136900000000    4.81742000000000   -2.64533000000000
O        -3.83045700000000    2.76731400000000   -1.93063200000000
H        -4.33941200000000    3.36987500000000   -1.36231600000000
O        -4.89865500000000    0.10817200000000    1.55169800000000
H        -5.55545300000000    0.61138700000000    1.03178400000000
O        -5.20231600000000    1.19935200000000   -0.60151300000000
H        -5.56561500000000    0.73107100000000   -1.38729100000000
O        -4.40969500000000   -2.51903100000000   -0.91574400000000
H        -4.26467300000000   -3.24529500000000   -0.28320800000000
O        -4.85697200000000   -0.56131900000000   -2.27225800000000
H        -5.20996400000000   -1.42948400000000   -2.00727900000000
O        -2.21992800000000   -1.29787900000000   -4.49926500000000
H        -2.83306200000000   -1.98283000000000   -4.19068700000000
O        -1.13195500000000   -4.34077300000000    2.40730700000000
H        -0.42422200000000   -4.40588800000000    3.07104100000000
O        -3.16430400000000   -3.87307600000000    1.01889400000000
H        -2.83497600000000   -4.56659900000000    1.61475600000000
O        -2.03021700000000   -4.85548300000000   -0.95962700000000
H        -1.38707100000000   -5.51487900000000   -0.65113400000000
O         0.36537600000000   -5.08376300000000   -0.65250000000000
H         1.23898500000000   -5.16850800000000   -0.21350500000000
O         4.93055900000000   -0.56405400000000    1.01347600000000
H         5.31037300000000    0.28319500000000    0.74063500000000
O         0.99031800000000   -4.18584100000000   -2.98424700000000
H         0.80457000000000   -5.02756200000000   -2.52575300000000
O        -2.79583200000000   -3.36785600000000   -2.79618500000000
H        -2.91939900000000   -4.27108700000000   -2.45574500000000
O        -0.71036600000000    4.25119700000000   -2.79654200000000
H        -0.77755600000000    3.81955700000000   -3.66869600000000
O        -3.40431800000000    0.76834100000000   -3.75741200000000
H        -3.88011200000000    1.55096400000000   -3.43689200000000
O        -1.86594800000000   -2.73805600000000    4.18075300000000
H        -2.83144500000000   -2.63125200000000    4.22430500000000
O        -3.67046600000000   -1.40075200000000    3.30732900000000
H        -4.42623700000000   -0.90531900000000    2.94649200000000
O         1.93961800000000    4.71197400000000    0.36640500000000
H         2.83969600000000    4.60223700000000    0.01482000000000
