124
 energy: -275.122375696296 gnorm: 0.000741745622 xtb: 6.4.1 (a3dbbd7)
C         0.84471900000000   -3.53479400000000    1.01700000000000
C        -0.72563500000000   -3.48836100000000    1.22576100000000
C        -0.94517500000000   -2.66816500000000    2.54119500000000
C         1.30977100000000   -2.36960200000000    1.84196000000000
C         0.37790500000000   -1.91650200000000    2.67038400000000
C         2.69400200000000   -1.78534800000000    1.80135300000000
C         3.35754000000000   -1.80557100000000    0.36467300000000
C         1.38274400000000   -3.41116000000000   -0.43861300000000
C         2.33999800000000   -2.23402800000000   -0.63648500000000
C         0.37353500000000   -3.04011900000000   -1.49391500000000
C        -1.43806700000000   -2.84632100000000    0.08682300000000
C        -0.91139200000000   -2.86427300000000   -1.24801600000000
C        -2.55898800000000   -2.12014400000000    0.11540900000000
C        -2.22015500000000   -1.70596500000000    2.57781800000000
C        -3.24435300000000   -1.67152300000000    1.34809700000000
C        -1.74514000000000   -0.29054600000000    2.60920200000000
C         0.53920000000000   -0.74738900000000    3.60027200000000
C        -0.55772900000000    0.15688400000000    3.12966200000000
C         2.51337900000000   -0.32221500000000    2.08319400000000
C         1.83642300000000    0.13620200000000    3.32515800000000
C         3.84204300000000   -0.32717300000000    0.11615700000000
C         3.06481600000000    0.44499900000000    1.16440500000000
C         3.69335500000000    0.29181900000000   -1.33813600000000
C         2.20272200000000   -1.73001400000000   -1.85704900000000
C         1.12876400000000   -2.48404600000000   -2.66242000000000
C         2.98359600000000   -0.59460800000000   -2.43455500000000
C         0.27704100000000   -1.57062800000000   -3.58947000000000
C        -1.95333800000000   -2.43552900000000   -2.23626300000000
C        -3.12626300000000   -1.86098800000000   -1.26517000000000
C        -1.32999100000000   -1.50165700000000   -3.32178700000000
C        -3.59425700000000   -0.38755900000000   -1.47540000000000
C        -3.68900700000000   -0.13681200000000    1.22222600000000
C        -2.52205500000000    0.55756400000000    1.84267200000000
C        -4.02697000000000    0.46783200000000   -0.18333000000000
C        -2.10801600000000    1.84385700000000    1.62244600000000
C        -0.11760700000000    1.44067700000000    2.87206400000000
C         1.32959400000000    1.62844600000000    3.21248000000000
C        -0.91220000000000    2.29209200000000    2.14865000000000
C         3.04757400000000    1.93385300000000    1.16293800000000
C         1.97479000000000    2.57715100000000    2.11084400000000
C         2.82399600000000    1.52644100000000   -1.29348500000000
C         2.54091300000000    2.25599300000000   -0.22541000000000
C         1.92010900000000    0.32653200000000   -3.01000400000000
C         0.72734300000000   -0.12813700000000   -3.39997700000000
C         2.20293500000000    1.77843900000000   -2.63450700000000
C        -1.51847000000000   -0.08026700000000   -2.89954800000000
C        -2.47862600000000    0.40345700000000   -2.05721500000000
C        -0.41143200000000    0.71033200000000   -3.17395600000000
C        -3.39537100000000    1.96601800000000   -0.49313000000000
C        -2.72186400000000    2.79740600000000    0.66168100000000
C        -2.36743000000000    1.67189100000000   -1.51872200000000
C        -0.43545300000000    3.57322600000000    1.52712500000000
C         0.94630400000000    3.15048400000000    1.11752900000000
C         1.38628700000000    3.10816900000000   -0.13957300000000
C        -1.47059200000000    3.81766100000000    0.33945900000000
C         0.96670200000000    2.76108900000000   -2.62379900000000
C        -0.29873200000000    1.97253200000000   -2.64379500000000
C        -1.28096900000000    2.45777600000000   -1.80409700000000
C         0.71743000000000    3.67824700000000   -1.33427100000000
C        -0.87099100000000    3.72268200000000   -1.12934600000000
O         1.33900900000000   -4.73122500000000    1.56739000000000
H         0.57009800000000   -5.33487200000000    1.61260700000000
O         3.53672600000000   -2.35942500000000    2.76806900000000
H         3.80513300000000   -3.22986900000000    2.43893600000000
O         0.46879100000000   -1.17078500000000    4.92794000000000
H         0.61700800000000   -0.40627300000000    5.50020600000000
O        -1.20079800000000   -4.79952700000000    1.37510800000000
H        -1.45254800000000   -4.88862800000000    2.31506200000000
O         4.42287500000000   -2.71143100000000    0.33428600000000
H         5.21848200000000   -2.21082000000000    0.57997800000000
O        -1.06569400000000   -3.61012000000000    3.57401400000000
H        -1.51945600000000   -3.16283900000000    4.31002900000000
O        -2.94744600000000   -2.01173300000000    3.73602900000000
H        -3.73624900000000   -2.50559400000000    3.43801600000000
O         5.20747500000000   -0.30023800000000    0.46633100000000
H         5.44673300000000    0.62404000000000    0.63199800000000
O         2.01364800000000   -4.60402900000000   -0.84807900000000
H         2.25350400000000   -5.08075800000000   -0.03206200000000
O         2.72892200000000    0.05175900000000    4.40873900000000
H         3.16770300000000   -0.80996700000000    4.35566900000000
O         4.34582100000000    2.40304500000000    1.41031000000000
H         4.25447700000000    3.24636800000000    1.88126500000000
O         4.94983700000000    0.68986000000000   -1.82448700000000
H         5.42482300000000   -0.09894000000000   -2.12206700000000
O         3.96138000000000   -1.04885400000000   -3.34148500000000
H         3.56306700000000   -1.72447600000000   -3.90372500000000
O        -4.35373200000000   -2.45992000000000    1.64951500000000
H        -5.06063700000000   -1.82912700000000    1.90351300000000
O         2.60514900000000    3.65417400000000    2.75468900000000
H         1.97722600000000    4.00255200000000    3.40727700000000
O         1.44774100000000    2.24328200000000    4.46753700000000
H         2.26838200000000    1.91885100000000    4.87133600000000
O        -4.67337200000000   -0.38193600000000   -2.37231300000000
H        -5.08773200000000   -1.26347800000000   -2.30183200000000
O        -4.27097300000000   -2.65722700000000   -1.43521900000000
H        -3.96694100000000   -3.50102600000000   -1.82063500000000
O        -1.99264500000000   -1.78268500000000   -4.52745600000000
H        -1.31204100000000   -1.77106900000000   -5.22814600000000
O        -2.44946800000000   -3.58727900000000   -2.86579500000000
H        -2.64304300000000   -3.32128400000000   -3.78756300000000
O         1.74293400000000   -3.48252600000000   -3.45580400000000
H         2.03356800000000   -4.18017200000000   -2.84542500000000
O         0.46795000000000   -1.93737700000000   -4.93107100000000
H         0.88282500000000   -2.81712200000000   -4.93498300000000
O        -4.81512800000000   -0.02158600000000    2.06418000000000
H        -5.49181400000000    0.48136700000000    1.58260700000000
O        -3.75199800000000    3.54148400000000    1.26232600000000
H        -3.44189200000000    4.46376500000000    1.32448800000000
O        -1.96235700000000    5.11818800000000    0.50515200000000
H        -2.08098600000000    5.46695100000000   -0.40858300000000
O        -5.41594000000000    0.60394600000000   -0.20965500000000
H        -5.65965700000000    0.71939900000000   -1.14662000000000
O        -1.34721900000000    4.84034800000000   -1.84185300000000
H        -0.56891800000000    5.42033000000000   -1.97808000000000
O        -4.41853700000000    2.73214100000000   -1.05325800000000
H        -4.83880400000000    3.20639300000000   -0.31348200000000
O         1.17879100000000    4.97323700000000   -1.59022500000000
H         1.40183500000000    4.98607400000000   -2.54645500000000
O        -0.39334300000000    4.65110700000000    2.42067400000000
H        -0.91387600000000    5.37296300000000    2.03474700000000
O         1.07100700000000    3.63886500000000   -3.71840200000000
H         1.88747500000000    3.41316600000000   -4.19478800000000
O         3.16630600000000    2.33498600000000   -3.51457400000000
H         4.02098300000000    1.92412600000000   -3.30732200000000
