140
 energy: -311.641501765514 gnorm: 0.000131621234 xtb: 6.4.1 (a3dbbd7)
C         3.51477400000000   -0.89021600000000    1.08835800000000
C         3.38796700000000    0.67892800000000    1.22107500000000
C         3.52467100000000    1.23854900000000   -0.21781400000000
C         3.33475000000000   -1.13467300000000   -0.45485300000000
C         2.80458400000000    0.19125000000000   -1.05747100000000
C         2.79122200000000   -2.50686400000000   -0.92610700000000
C         1.81656000000000   -3.30173400000000    0.01373400000000
C         2.65463400000000   -1.74299800000000    2.12333400000000
C         1.77331900000000   -2.93619300000000    1.51522200000000
C         1.61868400000000   -1.01059400000000    3.09659200000000
C         2.10408700000000    1.11081800000000    1.82558300000000
C         1.68965400000000    0.52686600000000    3.13470100000000
C         1.44931300000000    2.22233700000000    1.52475000000000
C         2.77998600000000    2.53936000000000   -0.57590600000000
C         1.89642900000000    3.21761000000000    0.51654100000000
C         1.75846900000000    2.06070500000000   -1.56942500000000
C         2.89956000000000    0.17996000000000   -2.56706500000000
C         2.07356200000000    1.44471300000000   -2.91611900000000
C         1.99069300000000   -2.38622200000000   -2.29491500000000
C         2.12461100000000   -1.06629800000000   -3.16190600000000
C         0.46461400000000   -3.13136900000000   -0.63267500000000
C         0.56434100000000   -2.68782700000000   -1.86884700000000
C        -0.76507600000000   -3.76512600000000   -0.06825900000000
C         0.34453100000000   -2.56228500000000    1.84615800000000
C         0.28015200000000   -1.53931800000000    2.67045100000000
C        -0.84599000000000   -3.38745200000000    1.47478400000000
C        -0.92650400000000   -1.00679500000000    3.35055800000000
C         0.32639800000000    1.28107500000000    3.44708300000000
C         0.43839400000000    2.59944200000000    2.57455600000000
C        -0.85624000000000    0.46765500000000    3.06927600000000
C        -0.86629400000000    3.22888800000000    1.97813000000000
C         0.66982300000000    3.86802400000000   -0.23179500000000
C         0.76787400000000    3.24569000000000   -1.68080100000000
C        -0.74317000000000    3.69011700000000    0.44537600000000
C        -0.54430000000000    2.96875600000000   -2.51840800000000
C         0.73138300000000    0.89254400000000   -3.28160200000000
C         0.74040700000000   -0.49028100000000   -3.35122400000000
C        -0.43822300000000    1.56480700000000   -3.02120600000000
C        -0.55499700000000   -2.60747200000000   -2.85052400000000
C        -0.45236900000000   -1.16644900000000   -3.23612700000000
C        -2.06427700000000   -3.19517600000000   -0.73068300000000
C        -2.01301000000000   -2.77108700000000   -2.24602800000000
C        -2.19474800000000   -2.58245900000000    1.63473000000000
C        -2.30084700000000   -1.48079000000000    2.75409500000000
C        -2.42843500000000   -2.10140500000000    0.23229600000000
C        -1.93502900000000    0.91704300000000    2.46480300000000
C        -2.13814800000000    2.29767900000000    1.95837500000000
C        -3.02515200000000   -0.11538600000000    2.30677300000000
C        -1.64675000000000    2.74288200000000   -0.29458400000000
C        -1.91197400000000    2.93275800000000   -1.74036100000000
C        -2.44822500000000    2.06938400000000    0.50513300000000
C        -1.61940300000000    0.86824700000000   -2.84853500000000
C        -1.62486700000000   -0.48959800000000   -2.96997900000000
C        -2.75685000000000   -1.36730500000000   -2.58514200000000
C        -2.72840000000000    1.71955100000000   -2.34290800000000
C        -3.08587500000000   -1.01568500000000   -0.09113500000000
C        -3.69825500000000   -0.09087700000000    0.89981500000000
C        -3.65468400000000    1.28456300000000    0.13592100000000
C        -3.59433200000000   -0.69036100000000   -1.45814400000000
C        -3.73361100000000    0.92040700000000   -1.41492900000000
O         4.86331800000000   -1.20347700000000    1.34670200000000
H         5.15094000000000   -0.60638300000000    2.06219100000000
O         3.86515600000000   -3.38962000000000   -1.12259700000000
H         4.67145300000000   -2.85234100000000   -1.22332400000000
O         4.18478200000000    0.28938800000000   -3.10718900000000
H         4.20668400000000   -0.33128500000000   -3.86167600000000
O         4.42251600000000    1.17252700000000    2.03861100000000
H         5.11047900000000    1.51694100000000    1.44104400000000
O         2.76592400000000   -1.36238700000000   -4.37468200000000
H         2.76672700000000   -2.33490200000000   -4.46043000000000
O         2.39161000000000   -3.46217400000000   -3.12488300000000
H         3.05324000000000   -3.96519700000000   -2.60156500000000
O         4.91072900000000    1.39515200000000   -0.45891200000000
H         4.99487400000000    2.18738800000000   -1.02686700000000
O         2.09207600000000   -4.67386100000000   -0.14826100000000
H         2.58762400000000   -4.97590700000000    0.62827000000000
O        -0.37923700000000   -3.51670000000000   -3.91124200000000
H         0.52052800000000   -3.87184700000000   -3.86374500000000
O        -0.73484800000000   -5.14557600000000   -0.27233900000000
H         0.09606500000000   -5.48240100000000    0.09483700000000
O         3.69021900000000    3.47798300000000   -1.08988400000000
H         3.72184900000000    4.20808200000000   -0.44099900000000
O         2.12535100000000   -4.10764300000000    2.21098700000000
H         2.03955600000000   -3.93331400000000    3.15803500000000
O         3.56561800000000   -2.31757900000000    3.01927300000000
H         4.31362500000000   -2.67046000000000    2.51306200000000
O         2.66583000000000    4.20576400000000    1.14356400000000
H         2.21292700000000    5.05548800000000    0.95830800000000
O         0.94319500000000    5.23739900000000   -0.28739400000000
H         0.10113200000000    5.69196700000000   -0.06171300000000
O        -1.37664000000000    4.96103500000000    0.39305400000000
H        -1.99929400000000    4.96333300000000   -0.35909600000000
O        -3.08861000000000   -4.15514700000000   -0.58720700000000
H        -3.10474600000000   -4.68059100000000   -1.40518300000000
O        -2.66862900000000   -3.78113500000000   -2.95301300000000
H        -2.15746400000000   -3.94776500000000   -3.76265600000000
O        -2.59685200000000    4.14607800000000   -1.88970900000000
H        -2.51096400000000    4.39155400000000   -2.82820400000000
O        -3.45970400000000    2.24370400000000   -3.44083900000000
H        -3.49277800000000    1.56971800000000   -4.13289800000000
O        -5.03830600000000    1.23020500000000   -1.81365300000000
H        -4.97405200000000    1.85636900000000   -2.55961300000000
O        -4.75462600000000    2.07314600000000    0.51338900000000
H        -5.45514100000000    1.89389600000000   -0.14225900000000
O        -5.04972100000000   -0.46610200000000    1.03317000000000
H        -5.29957500000000   -0.22321800000000    1.94691300000000
O        -4.04628700000000    0.17351600000000    3.22934000000000
H        -4.05562200000000   -0.58890100000000    3.85015200000000
O         0.22665500000000    1.58240700000000    4.80182500000000
H         0.73976100000000    2.39632900000000    4.94821800000000
O         1.07402400000000    3.54741900000000    3.40579500000000
H         0.44954200000000    4.29139900000000    3.50252800000000
O         2.64879000000000    0.84955100000000    4.11778900000000
H         2.95084300000000    1.75452300000000    3.96941600000000
O         1.79548700000000   -1.49660100000000    4.40748800000000
H         2.54495100000000   -1.01713200000000    4.79379400000000
O        -1.13496000000000    4.35748300000000    2.75457500000000
H        -2.09570700000000    4.36942600000000    2.91701600000000
O        -3.17678900000000    2.97621400000000    2.61753200000000
H        -4.02195700000000    2.63723700000000    2.28198800000000
O        -3.06893300000000   -2.01193700000000    3.79358500000000
H        -2.47767900000000   -2.11334400000000    4.56235400000000
O        -0.90708000000000   -1.32310200000000    4.71996600000000
H         0.01957200000000   -1.29262900000000    5.01872400000000
O        -0.67814500000000    3.91020500000000   -3.54471300000000
H         0.10584200000000    4.49507100000000   -3.48750600000000
O         2.68857700000000    2.28266200000000   -3.85534800000000
H         3.61531900000000    1.98146200000000   -3.91227600000000
O        -0.85479000000000   -4.52531500000000    2.27855500000000
H        -1.79477200000000   -4.70998300000000    2.47375400000000
O        -3.56560300000000   -1.54197000000000   -3.71191700000000
H        -4.39365100000000   -1.94135200000000   -3.40208200000000
O         4.63163400000000   -1.15222300000000   -1.03576400000000
H         5.10898300000000   -0.32571400000000   -0.83379100000000
O        -4.87921200000000   -1.24134500000000   -1.59681700000000
H        -5.37866500000000   -1.05439500000000   -0.78587200000000
O        -3.18599000000000   -3.52909000000000    1.96274800000000
H        -3.45445000000000   -3.97598600000000    1.13803500000000
O         1.49431100000000    4.21261800000000   -2.41754100000000
H         2.06081800000000    3.76121700000000   -3.07559100000000
