132
 energy: -293.470161738302 gnorm: 0.000202335275 xtb: 6.4.1 (a3dbbd7)
C         2.50942800000000   -2.07521500000000   -1.81396000000000
C         1.35729900000000   -3.10582500000000   -1.48241100000000
C         1.50049600000000   -3.35363800000000    0.06019600000000
C         2.71943800000000   -1.39528300000000   -0.48865000000000
C         2.21189700000000   -2.10933000000000    0.50493500000000
C         3.77551900000000   -0.35647000000000   -0.33440200000000
C         3.60539800000000    0.78839100000000   -1.38542900000000
C         2.30110200000000   -1.11338400000000   -3.01411400000000
C         2.77107500000000    0.39703900000000   -2.68651400000000
C         0.79521000000000   -0.94957200000000   -3.57315700000000
C         0.01311000000000   -2.55292200000000   -1.78304200000000
C        -0.27406900000000   -1.99476600000000   -3.14122900000000
C        -1.07269200000000   -2.73472400000000   -1.05284300000000
C         0.21750600000000   -3.56470200000000    0.94609200000000
C        -1.18803800000000   -3.45819200000000    0.24323600000000
C         0.13909500000000   -2.48693600000000    2.01755700000000
C         2.54795100000000   -1.87934400000000    1.93528600000000
C         1.31110700000000   -2.12205200000000    2.87608700000000
C         3.69496000000000    0.33578700000000    1.07000100000000
C         2.80632800000000   -0.40616000000000    2.03252100000000
C         2.94104000000000    1.88873800000000   -0.54777300000000
C         3.00335600000000    1.63879700000000    0.74770300000000
C         2.23460400000000    3.06249000000000   -1.17551300000000
C         1.46543800000000    1.12077600000000   -2.59081400000000
C         0.40370200000000    0.37834500000000   -3.05224900000000
C         1.22350400000000    2.32560600000000   -1.98750600000000
C        -0.87387400000000    0.81385800000000   -2.86412300000000
C        -1.82330300000000   -1.51769100000000   -3.04658900000000
C        -2.30680700000000   -2.15907100000000   -1.69851900000000
C        -2.10629200000000    0.03668200000000   -3.15032100000000
C        -2.81338700000000   -1.20695900000000   -0.67488700000000
C        -2.09344000000000   -2.70628900000000    1.28659300000000
C        -1.09101300000000   -2.01451100000000    2.15218200000000
C        -3.18234800000000   -1.77347300000000    0.67114200000000
C        -1.58148800000000   -1.15941900000000    3.25825100000000
C         1.10926700000000   -0.77099400000000    3.66319600000000
C         1.99537700000000    0.20918800000000    2.88022900000000
C        -0.39201800000000   -0.27613100000000    3.83123800000000
C         2.54549700000000    2.55380100000000    1.83051400000000
C         1.87047300000000    1.70901700000000    3.00175500000000
C         1.36002300000000    3.96397400000000   -0.20230800000000
C         1.42212200000000    3.55494900000000    1.32630100000000
C        -0.06562000000000    2.77320800000000   -1.78838100000000
C        -1.11764400000000    2.01395000000000   -2.22116100000000
C        -0.14791500000000    3.95789500000000   -0.89198100000000
C        -3.13339500000000    0.75125700000000   -2.15194300000000
C        -3.17662300000000    0.04915100000000   -0.84488100000000
C        -2.56717900000000    2.23191500000000   -1.96478700000000
C        -3.60381200000000   -0.50440200000000    1.52195100000000
C        -2.65256000000000   -0.12041000000000    2.71945100000000
C        -3.82116000000000    0.65290100000000    0.36576500000000
C        -0.54870100000000    0.96222300000000    3.01221700000000
C         0.41640100000000    1.87742500000000    2.69112200000000
C         0.18002700000000    2.82508200000000    1.71249600000000
C        -1.76802200000000    1.01030500000000    2.36796300000000
C        -1.43706200000000    3.77185900000000   -0.00646100000000
C        -2.78419700000000    2.98361800000000   -0.59381500000000
C        -3.25672500000000    2.08792100000000    0.63782900000000
C        -1.05070600000000    2.90112100000000    1.12376200000000
C        -2.02275600000000    1.98005600000000    1.44970700000000
O         3.70596600000000   -2.81642900000000   -2.01922300000000
H         3.85595500000000   -2.82655500000000   -2.98315600000000
O         4.86586900000000    1.25072600000000   -1.78110800000000
H         5.52160800000000    0.58169800000000   -1.51946900000000
O         1.52268600000000   -4.28534300000000   -2.21811400000000
H         2.30426100000000   -4.73160200000000   -1.85153700000000
O         3.49449100000000    0.79751700000000   -3.81913600000000
H         3.93890200000000    1.63079400000000   -3.60454900000000
O         3.08144900000000   -1.63278600000000   -4.05028000000000
H         3.02456700000000   -0.99865400000000   -4.78274800000000
O         2.38544600000000   -4.43442300000000    0.26346400000000
H         1.88661200000000   -5.07687700000000    0.81521600000000
O         5.03947100000000   -0.97014600000000   -0.47688200000000
H         4.92009000000000   -1.75598300000000   -1.04560600000000
O         3.62388100000000   -2.70599300000000    2.32024100000000
H         3.69949100000000   -3.42111100000000    1.66710700000000
O         0.31196100000000   -4.82912300000000    1.54728800000000
H        -0.40797200000000   -5.36297900000000    1.14649700000000
O        -1.68242200000000   -4.75191800000000    0.01363500000000
H        -2.48510200000000   -4.85007700000000    0.55496800000000
O        -2.73239700000000   -3.70620600000000    2.05327300000000
H        -2.83329700000000   -3.38201700000000    2.96145300000000
O         1.59016100000000   -3.14367600000000    3.79127600000000
H         2.51479200000000   -3.41897400000000    3.62085400000000
O        -2.12714200000000   -1.99117100000000    4.23806000000000
H        -2.21193200000000   -1.44465100000000    5.03834600000000
O        -4.31458400000000   -2.59569000000000    0.45473600000000
H        -5.06759000000000   -2.16060100000000    0.89370100000000
O        -0.66956200000000   -0.05458100000000    5.18732500000000
H         0.13745100000000   -0.29979000000000    5.68096200000000
O         1.65162300000000   -0.91963100000000    4.95407700000000
H         1.73655800000000   -1.88639300000000    5.09509800000000
O         3.09337000000000    3.83172700000000   -1.96604300000000
H         3.32333800000000    4.62996600000000   -1.46791600000000
O         3.61642100000000    3.32158200000000    2.30614800000000
H         4.31963300000000    2.71824700000000    2.58068600000000
O         4.96586800000000    0.58481700000000    1.61078300000000
H         5.54700300000000   -0.13970800000000    1.33576300000000
O         2.32415000000000    2.21373400000000    4.22477000000000
H         2.03096200000000    1.62417100000000    4.92994600000000
O         1.85741700000000    5.26471800000000   -0.30981100000000
H         1.77149700000000    5.65291400000000    0.58874600000000
O         1.53642000000000    4.74892700000000    2.07113900000000
H         2.33293600000000    4.66500000000000    2.62260900000000
O        -0.23683000000000   -3.04909200000000   -4.08216700000000
H         0.33682200000000   -3.74955400000000   -3.73379000000000
O         0.85689000000000   -0.92643300000000   -4.97153200000000
H         0.49652700000000   -1.77935100000000   -5.27886000000000
O        -2.51003100000000   -2.09753600000000   -4.11318100000000
H        -2.92585700000000   -2.91283800000000   -3.78665600000000
O        -3.26367100000000   -3.14650300000000   -1.99410500000000
H        -3.86667400000000   -3.22018700000000   -1.23212700000000
O        -3.13534700000000    3.02983400000000   -2.97378200000000
H        -3.95563500000000    2.57008200000000   -3.24458900000000
O        -4.39461300000000    0.81014900000000   -2.74290100000000
H        -4.25559200000000    0.55133900000000   -3.67827400000000
O        -2.59859500000000    0.32046900000000   -4.43881500000000
H        -2.55138500000000   -0.50056900000000   -4.95690000000000
O        -5.18692000000000    0.74351800000000    0.12304600000000
H        -5.52065100000000    1.48152500000000    0.66299600000000
O        -4.25315400000000    2.77201700000000    1.37055500000000
H        -4.36244200000000    3.64032500000000    0.94732800000000
O        -3.76467400000000    3.95332700000000   -0.77525800000000
H        -3.75549700000000    4.17330200000000   -1.72802500000000
O        -1.85894700000000    5.01597400000000    0.45415000000000
H        -1.72283000000000    5.63883300000000   -0.28056300000000
O        -0.31137700000000    5.16426600000000   -1.58377100000000
H         0.54088600000000    5.63511000000000   -1.55087800000000
O        -4.86737400000000   -0.78078800000000    2.05148600000000
H        -4.83953400000000   -0.56517700000000    3.00310500000000
O        -3.46286500000000    0.22501000000000    3.83490700000000
H        -3.67156700000000    1.16681500000000    3.78118800000000
