128
 energy: -284.292756832001 gnorm: 0.000185472561 xtb: 6.4.1 (a3dbbd7)
C        -2.82621400000000   -2.36283800000000    0.48667300000000
C        -1.67028900000000   -3.26368400000000   -0.09364700000000
C        -1.67113100000000   -2.95823400000000   -1.62717300000000
C        -2.87016600000000   -1.23734800000000   -0.51326300000000
C        -2.32969800000000   -1.59634600000000   -1.66521100000000
C        -3.84821400000000   -0.12863400000000   -0.35745900000000
C        -3.69032600000000    0.53314600000000    1.05315800000000
C        -2.71670800000000   -1.94321600000000    1.97460700000000
C        -3.09645100000000   -0.38248100000000    2.21452800000000
C        -1.29244500000000   -2.12800900000000    2.71429500000000
C        -0.35705400000000   -2.93543600000000    0.52065400000000
C        -0.20648900000000   -2.99325300000000    2.00846600000000
C         0.79868300000000   -2.89859900000000   -0.12045500000000
C        -0.28266100000000   -2.99160500000000   -2.40755100000000
C         1.01488400000000   -3.23257300000000   -1.54810700000000
C        -0.01778400000000   -1.63666400000000   -2.99384900000000
C        -2.43108200000000   -0.83922700000000   -2.94674000000000
C        -0.96988000000000   -0.71860500000000   -3.32665300000000
C        -3.59929000000000    1.03476700000000   -1.38358700000000
C        -2.91607900000000    0.66401100000000   -2.75898900000000
C        -2.82575200000000    1.73613200000000    0.72108800000000
C        -2.77908600000000    2.01440100000000   -0.56397800000000
C        -2.22905000000000    2.57917700000000    1.79643700000000
C        -1.77843000000000    0.21767400000000    2.59665300000000
C        -0.80867100000000   -0.73351700000000    2.82751600000000
C        -1.41481000000000    1.54302300000000    2.51301300000000
C         0.50436500000000   -0.37918300000000    2.92639300000000
C         1.36164800000000   -2.67311200000000    2.25892600000000
C         1.97826300000000   -2.90906400000000    0.79749300000000
C         1.67435100000000   -1.29877300000000    2.96434600000000
C         3.09697400000000   -1.95148100000000    0.32746200000000
C         2.14315800000000   -2.33226800000000   -2.19629000000000
C         1.32937000000000   -1.25739000000000   -2.83713000000000
C         3.27908200000000   -1.75470500000000   -1.24613100000000
C         1.72061800000000    0.02705300000000   -3.02231400000000
C        -0.59882700000000    0.63325800000000   -3.38256600000000
C        -1.62499900000000    1.45392600000000   -2.89160800000000
C         0.73705000000000    1.00123800000000   -3.24752600000000
C        -2.12039400000000    3.21806700000000   -1.16378400000000
C        -1.25445700000000    2.59253000000000   -2.22978900000000
C        -1.16856100000000    3.69154300000000    1.34390000000000
C        -1.10611800000000    4.02896200000000   -0.22920600000000
C        -0.09041500000000    1.90464100000000    2.62772100000000
C         0.87352500000000    0.94593800000000    2.82194400000000
C         0.21002900000000    3.25133600000000    2.03678300000000
C         2.79343900000000   -0.37701700000000    2.33407200000000
C         2.88864100000000   -0.56651100000000    0.86637200000000
C         2.35607300000000    1.10797200000000    2.67935300000000
C         3.56679200000000   -0.16428800000000   -1.34421300000000
C         2.99981900000000    0.63820000000000   -2.54866700000000
C         3.10287100000000    0.38486200000000   -0.02839000000000
C         1.10270300000000    2.20810700000000   -2.63898800000000
C         0.09305500000000    2.96530200000000   -2.10644900000000
C         0.31859900000000    3.87616000000000   -0.92932000000000
C         2.57448600000000    2.18139400000000   -2.25499800000000
C         1.34243400000000    2.89395300000000    1.12704600000000
C         2.62969000000000    2.24887300000000    1.62938100000000
C         3.32112800000000    1.82873700000000    0.28656800000000
C         1.36474700000000    3.13514700000000   -0.16576800000000
C         2.69450200000000    2.77453800000000   -0.80286800000000
O        -4.05534400000000   -3.04321500000000    0.28543000000000
H        -4.30516800000000   -3.43489300000000    1.14074800000000
O        -5.14886200000000   -0.61588900000000   -0.56673500000000
H        -5.16664600000000   -1.55197500000000   -0.30042300000000
O        -3.24650100000000   -1.54466900000000   -3.83445900000000
H        -3.67753300000000   -0.87725300000000   -4.39751500000000
O        -1.92701900000000   -4.62129600000000    0.16259400000000
H        -2.62282500000000   -4.88378300000000   -0.46350400000000
O        -3.79195100000000    0.93829900000000   -3.81843600000000
H        -4.56676000000000    1.39160000000000   -3.43384800000000
O        -4.84117200000000    1.65035500000000   -1.67190800000000
H        -5.53220200000000    1.07087900000000   -1.30527700000000
O         1.98833900000000   -1.49942200000000    4.31288400000000
H         2.60642600000000   -2.24314100000000    4.36405700000000
O         1.90237800000000   -3.63894500000000    3.10388900000000
H         1.41107900000000   -4.46390800000000    2.96230800000000
O        -2.53563200000000   -3.89954600000000   -2.21358500000000
H        -2.82112200000000   -3.54317700000000   -3.06845600000000
O         4.29639100000000   -2.46119100000000    0.86628700000000
H         4.95521800000000   -2.46149700000000    0.15003200000000
O         2.50156500000000   -4.22320200000000    0.75514500000000
H         3.40355600000000   -4.14889700000000    1.12307300000000
O        -3.64135700000000   -2.73853100000000    2.65930400000000
H        -3.58057400000000   -2.48547400000000    3.59567400000000
O        -1.53779600000000   -2.65304200000000    3.99031700000000
H        -1.23866400000000   -3.57873000000000    3.98429600000000
O        -0.35085000000000   -3.93632500000000   -3.43278000000000
H        -0.33488700000000   -4.81825200000000   -3.03508800000000
O         4.46407100000000   -2.41219300000000   -1.57882000000000
H         4.34381200000000   -2.76927100000000   -2.48136200000000
O         2.77323800000000   -3.09911300000000   -3.19925800000000
H         2.41696300000000   -4.00511800000000   -3.13049600000000
O         0.66355300000000    4.21298000000000    2.94710200000000
H        -0.07909900000000    4.81599800000000    3.12100900000000
O        -1.56196800000000    4.86210400000000    2.01205100000000
H        -1.70934700000000    5.53351600000000    1.30713400000000
O        -1.47095900000000    5.37823400000000   -0.32620500000000
H        -0.82682100000000    5.81807300000000   -0.90814400000000
O         0.79862400000000    5.15909500000000   -1.27357200000000
H         1.76422300000000    5.15635500000000   -1.16760300000000
O         3.43055300000000    3.97665800000000   -0.85015100000000
H         3.87170100000000    4.00309900000000   -1.72063400000000
O         4.71421200000000    2.01623500000000    0.36322300000000
H         4.84228900000000    2.84604500000000    0.85493500000000
O         3.45719300000000    3.23312100000000    2.18549300000000
H         3.06170100000000    3.50868400000000    3.02408800000000
O         3.34419400000000    2.99562400000000   -3.09990800000000
H         3.76578400000000    2.39297700000000   -3.74703500000000
O         3.95358900000000    0.63701200000000   -3.57763400000000
H         4.79408600000000    0.34315200000000   -3.16853000000000
O         2.96836100000000    1.49474000000000    3.88057300000000
H         2.91142900000000    0.74254400000000    4.48832300000000
O        -3.28988700000000    3.13879500000000    2.52857500000000
H        -3.00596500000000    4.03218300000000    2.79304300000000
O        -3.97496300000000   -0.35673200000000    3.30275800000000
H        -4.83864500000000   -0.04840900000000    2.97124200000000
O        -4.95453100000000    1.00944200000000    1.45872400000000
H        -4.80579700000000    1.83683200000000    1.94730000000000
O         4.00228100000000   -0.69985500000000    2.96090100000000
H         4.71505500000000   -0.18645400000000    2.56278300000000
O         4.97839400000000   -0.04046200000000   -1.39755300000000
H         5.24123700000000    0.70241800000000   -0.82597200000000
O         1.36876200000000   -4.59177700000000   -1.66190500000000
H         1.87150100000000   -4.83251400000000   -0.85975600000000
O        -0.40039900000000   -4.33873700000000    2.42122900000000
H        -0.99898700000000   -4.76643700000000    1.78405800000000
O        -3.08312400000000    4.11869900000000   -1.64390300000000
H        -3.88874400000000    3.62676800000000   -1.85087200000000
