120
 energy: -265.965705264399 gnorm: 0.000307797717 xtb: 6.4.1 (a3dbbd7)
C         3.59404900000000   -0.48711200000000    0.59884600000000
C         3.43918900000000    1.07378100000000    0.86086400000000
C         3.31330000000000    1.71343300000000   -0.55966700000000
C         3.01724100000000   -0.63580200000000   -0.77789500000000
C         2.91462000000000    0.52333300000000   -1.40713400000000
C         2.99652800000000   -1.97057300000000   -1.42691900000000
C         2.34294800000000   -3.07581500000000   -0.48349200000000
C         2.97298700000000   -1.46431500000000    1.64033200000000
C         2.31238700000000   -2.80939600000000    1.07122100000000
C         1.84845400000000   -0.85633700000000    2.43198200000000
C         2.23397400000000    1.38691400000000    1.67042900000000
C         1.67961800000000    0.45660600000000    2.60453500000000
C         1.39137500000000    2.41536900000000    1.51665800000000
C         2.34588800000000    2.97540800000000   -0.74775800000000
C         1.48633100000000    3.47843400000000    0.48994300000000
C         1.28889800000000    2.61207300000000   -1.75188400000000
C         2.57797200000000    0.70843500000000   -2.84841800000000
C         1.43327500000000    1.69897600000000   -2.75841200000000
C         2.13873000000000   -1.98023700000000   -2.74796000000000
C         1.94032200000000   -0.58532200000000   -3.52296400000000
C         0.93473300000000   -3.11623400000000   -1.00496400000000
C         0.83018300000000   -2.53496700000000   -2.25597500000000
C        -0.20007600000000   -3.40673400000000   -0.28647200000000
C         0.89525500000000   -2.75339000000000    1.66859600000000
C         0.77330700000000   -1.78799400000000    2.58710800000000
C        -0.20234600000000   -3.65614000000000    1.19718300000000
C        -0.43112000000000   -1.48859500000000    3.40009000000000
C         0.57792700000000    1.08802200000000    3.41218700000000
C         0.38319100000000    2.50137800000000    2.63290800000000
C        -0.64995200000000    0.11144500000000    3.53170900000000
C        -1.04272600000000    2.83028600000000    2.08645200000000
C         0.07135000000000    3.89622900000000   -0.12697200000000
C         0.01806000000000    3.08808800000000   -1.38776400000000
C        -1.21063100000000    3.70725600000000    0.75755700000000
C        -1.10675200000000    2.65810100000000   -2.03072000000000
C         0.27749100000000    1.16156000000000   -3.34307700000000
C         0.47140200000000   -0.19661600000000   -3.64430400000000
C        -0.98375600000000    1.63993400000000   -2.98685100000000
C        -0.41911500000000   -2.23774900000000   -2.75145300000000
C        -0.61570400000000   -1.01271600000000   -3.48662200000000
C        -1.45770200000000   -3.08837100000000   -0.78310500000000
C        -1.58139200000000   -2.50413900000000   -2.01189800000000
C        -1.66459800000000   -3.26225700000000    1.66184800000000
C        -1.73791300000000   -2.00882900000000    2.61711600000000
C        -2.53213200000000   -3.12693500000000    0.24434700000000
C        -1.51432700000000    0.35595100000000    2.36057100000000
C        -1.68015100000000    1.54532700000000    1.71811700000000
C        -2.07545500000000   -0.79040800000000    1.84470200000000
C        -2.48843600000000    2.98455600000000    0.00234400000000
C        -2.52287400000000    2.79442400000000   -1.55095700000000
C        -2.45984900000000    1.62556800000000    0.58859500000000
C        -2.11783400000000    0.79574900000000   -2.95024500000000
C        -1.92444900000000   -0.53193700000000   -3.15044900000000
C        -2.73772200000000   -1.67008300000000   -2.53676200000000
C        -3.24363100000000    1.42012600000000   -2.17802600000000
C        -3.45652000000000   -1.86260000000000    0.03544300000000
C        -2.82529500000000   -0.71562400000000    0.71279600000000
C        -3.03351100000000    0.49352200000000    0.08630300000000
C        -3.76169300000000   -1.24093700000000   -1.43898800000000
C        -3.82496900000000    0.36523300000000   -1.15946100000000
O         4.98254300000000   -0.77477000000000    0.52943900000000
H         5.42778500000000    0.01753400000000    0.89906100000000
O         4.31221200000000   -2.33070100000000   -1.77126700000000
H         4.91267200000000   -2.01913700000000   -1.07859000000000
O         3.71230700000000    1.14574400000000   -3.53655400000000
H         3.65483000000000    0.75023100000000   -4.42599300000000
O         4.59516800000000    1.53355300000000    1.51448100000000
H         5.04096600000000    2.14538700000000    0.90300200000000
O         2.51314000000000   -0.69693400000000   -4.79607300000000
H         2.78262000000000   -1.63383300000000   -4.89300900000000
O         2.72789000000000   -2.87405200000000   -3.66229400000000
H         3.54776900000000   -3.20121400000000   -3.25708200000000
O         4.61896500000000    2.10178800000000   -0.92061800000000
H         4.60515800000000    2.33802100000000   -1.86055300000000
O         2.99453200000000   -4.28294000000000   -0.77021200000000
H         3.34227100000000   -4.63823900000000    0.06504200000000
O         2.95730800000000   -3.91317400000000    1.67492700000000
H         3.47775500000000   -3.54655400000000    2.41885700000000
O         3.96857900000000   -1.83132800000000    2.56655300000000
H         4.82784300000000   -1.68932500000000    2.12452100000000
O         3.11526300000000    4.04080500000000   -1.22505000000000
H         3.37820600000000    4.57818100000000   -0.45961900000000
O         2.07008600000000    4.61565200000000    1.07391200000000
H         1.65001800000000    5.37426600000000    0.60790000000000
O         0.21394600000000    5.26018900000000   -0.46401800000000
H        -0.56526200000000    5.72749200000000   -0.11655700000000
O        -1.60571200000000    4.99447600000000    1.11834500000000
H        -2.41686000000000    4.90110600000000    1.64396000000000
O        -3.63250500000000    3.67933600000000    0.40380200000000
H        -3.89844300000000    4.22492800000000   -0.35938800000000
O        -3.18281200000000    3.90158300000000   -2.09253000000000
H        -3.74809100000000    3.55863200000000   -2.81448900000000
O        -4.26897200000000    1.84317700000000   -3.02406600000000
H        -5.09769000000000    1.68844300000000   -2.52313900000000
O        -5.17317100000000    0.71646000000000   -0.97086000000000
H        -5.69085900000000   -0.10764500000000   -0.99907000000000
O        -5.04687900000000   -1.62259800000000   -1.80549800000000
H        -4.98685200000000   -2.20631400000000   -2.57753800000000
O        -3.47037100000000   -2.37626600000000   -3.52519900000000
H        -2.84635900000000   -2.72636900000000   -4.17107900000000
O        -0.33218200000000   -2.07562600000000    4.65078700000000
H        -1.13655100000000   -1.81799000000000    5.13248600000000
O        -2.75622500000000   -2.22578900000000    3.56302900000000
H        -2.76796600000000   -3.18180700000000    3.74199000000000
O        -1.32155600000000    0.37916000000000    4.73000700000000
H        -0.62479100000000    0.59902600000000    5.37623600000000
O        -2.22127500000000   -4.31567800000000    2.38513300000000
H        -1.81448400000000   -5.13731300000000    2.07235300000000
O         1.01450800000000    1.33240800000000    4.72272800000000
H         1.27766700000000    2.26820500000000    4.76839400000000
O        -1.78005100000000    3.50117500000000    3.08234600000000
H        -1.87810200000000    2.91004400000000    3.83931400000000
O        -3.30473400000000   -4.27809500000000    0.10836800000000
H        -4.21640400000000   -4.04379200000000    0.35711300000000
O        -4.71621800000000   -2.16328200000000    0.60066700000000
H        -4.65300900000000   -2.04072100000000    1.55810900000000
O         0.78043700000000    3.51499300000000    3.53359900000000
H         1.15866900000000    4.24568700000000    3.02320900000000
O         0.02245500000000   -5.00579300000000    1.54220300000000
H         0.97396200000000   -5.16880900000000    1.51661500000000
