156
 energy: -347.993070671102 gnorm: 0.000332456092 xtb: 6.4.1 (a3dbbd7)
C        -3.26998600000000   -2.10064000000000   -0.81103900000000
C        -3.22059800000000   -0.95971400000000   -1.98599500000000
C        -3.41361800000000    0.39349800000000   -1.22536200000000
C        -3.47964300000000   -1.24330300000000    0.51987600000000
C        -3.01583900000000    0.13486200000000    0.17681200000000
C        -3.01474800000000   -1.73298300000000    1.92132800000000
C        -1.83905100000000   -2.77234200000000    1.92064200000000
C        -2.14927200000000   -3.22426400000000   -0.79482800000000
C        -1.35546500000000   -3.39742400000000    0.56910200000000
C        -0.97130800000000   -3.12741900000000   -1.88434800000000
C        -1.98802400000000   -1.05477800000000   -2.94589500000000
C        -0.80213000000000   -1.75881000000000   -2.40145800000000
C        -1.33851000000000    0.27488300000000   -3.46436000000000
C        -2.67362200000000    1.60175700000000   -1.82545400000000
C        -1.33020800000000    1.27726800000000   -2.37022300000000
C        -2.47689300000000    2.83086800000000   -0.85864600000000
C        -3.32664300000000    1.22987700000000    1.12910100000000
C        -2.66300600000000    2.59770700000000    0.69946400000000
C        -2.53339100000000   -0.56469700000000    2.90257800000000
C        -2.75143300000000    0.90864500000000    2.53306700000000
C        -0.70953300000000   -2.02662500000000    2.73738200000000
C        -0.99795000000000   -0.50059700000000    2.78352600000000
C         0.70444400000000   -2.52047200000000    2.46778200000000
C         0.05671900000000   -3.05459500000000    0.19163300000000
C         0.34805800000000   -3.57349000000000   -1.17025400000000
C         0.98191800000000   -2.64222900000000    1.01898300000000
C         1.74596300000000   -3.13146900000000   -1.74952100000000
C         0.34214100000000   -1.54384500000000   -3.33723100000000
C         0.13589400000000   -0.06916600000000   -3.88769200000000
C         1.70025300000000   -1.90712800000000   -2.72597300000000
C         1.24917700000000    0.94164300000000   -3.42750900000000
C        -0.62362500000000    2.57935500000000   -2.59405500000000
C        -1.08480500000000    3.47319900000000   -1.36130300000000
C         0.89835600000000    2.42126200000000   -2.96375600000000
C         0.05404200000000    3.65699800000000   -0.33269200000000
C        -1.42563500000000    2.66077500000000    1.65402900000000
C        -1.25054100000000    1.25527700000000    2.37513100000000
C        -0.28540600000000    3.57899200000000    1.17707900000000
C        -0.05658100000000    0.03803500000000    3.88027900000000
C        -0.29392800000000    1.52968300000000    3.53910200000000
C         1.88413600000000   -1.69314700000000    3.05658400000000
C         1.45196900000000   -0.26264400000000    3.53328700000000
C         2.44412800000000   -2.78741000000000    0.82052200000000
C         2.91093900000000   -2.70539100000000   -0.65349500000000
C         3.04855700000000   -1.81722900000000    1.90322500000000
C         2.28718100000000   -0.78940800000000   -1.94877300000000
C         2.09757000000000    0.45924700000000   -2.28382600000000
C         3.42319200000000   -1.30157500000000   -1.13425400000000
C         1.92124500000000    2.73559000000000   -1.79863500000000
C         1.23943000000000    2.77466500000000   -0.49382500000000
C         2.96683000000000    1.56503500000000   -1.79496100000000
C         1.09175700000000    3.24166300000000    1.90760900000000
C         1.06665800000000    2.09313100000000    2.98205800000000
C         1.73232500000000    0.82054800000000    2.54373800000000
C         2.10856500000000    2.98672900000000    0.70058200000000
C         3.55104500000000   -0.44702100000000    1.39568300000000
C         4.02257700000000   -0.30784200000000   -0.09963900000000
C         3.76433200000000    1.27167400000000   -0.47169400000000
C         2.61141100000000    0.69435100000000    1.58114000000000
C         3.14880800000000    1.86641200000000    0.84904200000000
O        -4.44871100000000   -2.81995900000000   -1.03954400000000
H        -5.18543700000000   -2.31290900000000   -0.66079800000000
O        -4.13669000000000   -2.30983800000000    2.53435400000000
H        -3.86971800000000   -3.22614700000000    2.76784500000000
O        -4.73072200000000    1.41843200000000    1.23425700000000
H        -4.83882000000000    2.33575600000000    1.56098700000000
O        -4.33355300000000   -1.15776500000000   -2.80864400000000
H        -5.01378100000000   -0.52113800000000   -2.51379400000000
O        -3.51961000000000    1.57331800000000    3.49537000000000
H        -3.52199200000000    0.99569600000000    4.28347400000000
O        -3.04484700000000   -0.79040000000000    4.18029700000000
H        -3.67900400000000   -1.53084600000000    4.09824100000000
O        -4.80231500000000    0.71062100000000   -1.32088600000000
H        -5.11282400000000    1.01780400000000   -0.44906700000000
O        -2.30995100000000   -3.82709600000000    2.72046400000000
H        -1.89825200000000   -4.64514300000000    2.38282600000000
O        -1.31570200000000   -4.78640500000000    0.83911900000000
H        -0.84062000000000   -5.21952600000000    0.09919100000000
O        -2.73860500000000   -4.45794700000000   -1.06904200000000
H        -3.70263600000000   -4.36107000000000   -1.01652600000000
O        -2.06415300000000    0.73307100000000   -4.58763700000000
H        -1.50153000000000    0.55951000000000   -5.36756300000000
O        -2.39627300000000   -1.82191200000000   -4.07474000000000
H        -3.35927200000000   -1.67816700000000   -4.16443800000000
O         1.16796800000000    3.28588100000000   -4.03062600000000
H         1.82275200000000    3.93420300000000   -3.70195100000000
O        -1.24010500000000    3.17349100000000   -3.73144800000000
H        -0.51415200000000    3.40971400000000   -4.34607300000000
O        -3.53841400000000    3.59677500000000    1.17382500000000
H        -3.81597800000000    4.12254600000000    0.39858600000000
O        -3.47323700000000    3.76542500000000   -1.18475700000000
H        -3.84064300000000    3.48360600000000   -2.04882900000000
O        -1.39036400000000    4.75108300000000   -1.83802100000000
H        -1.69803300000000    4.62862000000000   -2.75788900000000
O         2.57468100000000    3.94526400000000   -2.12221600000000
H         2.69356700000000    4.45112100000000   -1.29778100000000
O         0.78392300000000   -3.84024700000000    2.98252600000000
H         0.20422100000000   -3.85712600000000    3.76868900000000
O        -0.32108800000000   -0.25007200000000    5.21881400000000
H        -0.74241300000000    0.54699700000000    5.59498000000000
O         2.35907100000000   -2.34386700000000    4.20153800000000
H         3.19449500000000   -2.78591200000000    3.93502000000000
O         2.20856300000000    0.06163100000000    4.68227300000000
H         2.39774400000000   -0.78700200000000    5.12726500000000
O         2.87484000000000    4.17422900000000    0.53250900000000
H         2.59994800000000    4.75327700000000    1.28246900000000
O         1.50557300000000    4.40608600000000    2.55386500000000
H         0.79223600000000    5.06746400000000    2.38702900000000
O        -0.63849700000000    4.90860300000000    1.48915700000000
H        -1.35647300000000    4.86858600000000    2.14969200000000
O        -0.72385400000000    2.22618900000000    4.66525200000000
H         0.01038800000000    2.82693300000000    4.90095900000000
O         4.21069900000000    2.36115200000000    1.63993800000000
H         4.38653000000000    3.26511300000000    1.32169300000000
O         3.90525900000000    1.81804100000000   -2.81834400000000
H         4.68488400000000    2.20967700000000   -2.37996700000000
O         5.01951400000000    1.86713800000000   -0.64789800000000
H         5.67907200000000    1.18210300000000   -0.39646800000000
O         4.48874500000000   -1.51163000000000   -2.04802200000000
H         4.11980000000000   -1.90538500000000   -2.86064400000000
O         5.41067300000000   -0.49498400000000   -0.07062500000000
H         5.64170700000000   -1.02844000000000   -0.85384300000000
O         4.12082200000000   -2.50840900000000    2.47749600000000
H         4.83314100000000   -1.85999500000000    2.62441700000000
O         0.21998700000000   -2.43135300000000   -4.42969200000000
H        -0.65032600000000   -2.29995400000000   -4.83726300000000
O         2.60385700000000   -2.14732100000000   -3.78794900000000
H         2.17456600000000   -2.80104900000000   -4.36421300000000
O         2.22375400000000   -4.22489900000000   -2.46712300000000
H         3.13728900000000   -4.38934200000000   -2.15489000000000
O         0.35930800000000   -4.98116800000000   -1.11184400000000
H         0.22394100000000   -5.29183800000000   -2.02159500000000
O        -4.90895800000000   -1.14074000000000    0.59865100000000
H        -5.15209500000000   -0.63596200000000    1.38642700000000
O         1.74815900000000    2.61944200000000    4.09914300000000
H         2.17041500000000    1.87885500000000    4.56947100000000
O         4.66270300000000   -0.16889900000000    2.23272500000000
H         4.87210300000000    0.77988200000000    2.16510400000000
O         0.12594500000000   -0.12126200000000   -5.28618200000000
H         1.01785300000000    0.13098000000000   -5.58376800000000
O         2.09779300000000    1.03267800000000   -4.55145000000000
H         2.94025500000000    1.42670900000000   -4.26385200000000
O         3.97922300000000   -3.58940900000000   -0.82795600000000
H         3.94588900000000   -4.22041000000000   -0.08571400000000
O        -1.20393800000000   -4.05636700000000   -2.90916700000000
H        -1.96810100000000   -3.76320200000000   -3.42590500000000
O         2.76730100000000   -4.11328300000000    1.20688500000000
H         2.21612000000000   -4.35981100000000    1.96987300000000
O        -1.00411200000000   -2.45073000000000    4.05701800000000
H        -0.73215100000000   -1.79906600000000    4.72888300000000
O         0.62114200000000    4.94642100000000   -0.53396200000000
H        -0.07951500000000    5.51027300000000   -0.90715700000000
O        -1.84368200000000    3.38949300000000    2.79559000000000
H        -2.63900000000000    2.99283200000000    3.20529000000000
O        -3.50999800000000    2.06717300000000   -2.88257200000000
H        -3.15249400000000    1.75990700000000   -3.73616500000000
