148
 energy: -329.935300176158 gnorm: 0.000405375535 xtb: 6.4.1 (a3dbbd7)
C         3.50332400000000   -1.56614500000000    0.07983000000000
C         3.59284600000000   -0.36953800000000    1.11480600000000
C         3.68338400000000    0.93170000000000    0.25031300000000
C         3.14287100000000   -0.82881900000000   -1.25975800000000
C         2.72848800000000    0.62319700000000   -0.91349300000000
C         2.43416300000000   -1.66646100000000   -2.34773100000000
C         1.42947600000000   -2.76644700000000   -1.88894500000000
C         2.64551600000000   -2.82730600000000    0.55762800000000
C         1.63241100000000   -3.48131800000000   -0.51689300000000
C         1.76790900000000   -2.71665700000000    1.88949300000000
C         2.43994800000000   -0.29841300000000    2.04301100000000
C         2.04424000000000   -1.51719200000000    2.80999000000000
C         1.94408300000000    0.81262700000000    2.55452400000000
C         3.05164600000000    2.22608800000000    0.79237500000000
C         2.33055200000000    2.20257000000000    2.18957200000000
C         1.88877500000000    2.38491700000000   -0.19088400000000
C         2.68939300000000    1.44507000000000   -2.19343800000000
C         2.02749300000000    2.73923000000000   -1.65446000000000
C         1.62932400000000   -0.75903300000000   -3.40814200000000
C         1.67344700000000    0.80229700000000   -3.20388900000000
C         0.10492900000000   -2.11916500000000   -2.12363600000000
C         0.14581700000000   -1.36158600000000   -3.40417200000000
C        -1.01311300000000   -2.46979900000000   -1.54528700000000
C         0.25042100000000   -3.71011500000000    0.26179200000000
C         0.35784100000000   -2.78872900000000    1.42089300000000
C        -1.07569500000000   -3.52842500000000   -0.50376200000000
C        -0.67410900000000   -2.35801000000000    2.10535000000000
C         0.84005100000000   -1.03191700000000    3.74505800000000
C         0.91694900000000    0.52943000000000    3.62290400000000
C        -0.57726100000000   -1.65880500000000    3.43269700000000
C        -0.29761500000000    1.16912000000000    3.07705300000000
C         1.06669000000000    3.16559000000000    2.05622200000000
C         1.01262900000000    3.42558600000000    0.51461300000000
C        -0.23393900000000    2.63604500000000    2.78683700000000
C        -0.38225000000000    3.72782000000000   -0.03656900000000
C         0.61792400000000    2.83613900000000   -2.34887600000000
C         0.38013800000000    1.40758700000000   -2.71896700000000
C        -0.56278400000000    3.53510700000000   -1.60035600000000
C        -1.06410800000000   -0.41571300000000   -3.52830400000000
C        -0.80956900000000    0.87397400000000   -2.84521400000000
C        -2.39854500000000   -2.13054600000000   -1.99612700000000
C        -2.48603400000000   -0.88231500000000   -2.95148400000000
C        -2.38615100000000   -3.14117600000000    0.31373500000000
C        -2.11416700000000   -2.66644500000000    1.79795500000000
C        -3.13398100000000   -2.10138800000000   -0.61830600000000
C        -1.84566200000000   -0.72884600000000    3.39006200000000
C        -1.50835600000000    0.65706900000000    2.96787000000000
C        -2.82328900000000   -1.37433600000000    2.31410500000000
C        -1.60768900000000    2.87512700000000    2.06189100000000
C        -1.42044400000000    2.85670200000000    0.59100700000000
C        -2.52741900000000    1.68265900000000    2.51762600000000
C        -1.97672400000000    2.77280000000000   -1.69244400000000
C        -2.08586000000000    1.61572000000000   -2.69396400000000
C        -3.15674800000000    0.48635900000000   -2.38761100000000
C        -2.23784000000000    2.31864100000000   -0.29248000000000
C        -3.12452600000000   -0.72221400000000   -0.07533200000000
C        -3.06416200000000   -0.40158300000000    1.20784400000000
C        -3.48522500000000    1.03025800000000    1.45607800000000
C        -3.70154200000000    0.37712200000000   -0.91840000000000
C        -3.50998500000000    1.62886000000000    0.01341600000000
O         4.83261100000000   -2.00321500000000   -0.08361000000000
H         4.85609700000000   -2.91909500000000    0.27575500000000
O         3.42393700000000   -2.38567500000000   -3.04932300000000
H         4.29120600000000   -2.01694300000000   -2.78647300000000
O         3.91734800000000    1.71010900000000   -2.82511200000000
H         4.09034400000000    2.66418800000000   -2.71799100000000
O         4.73574900000000   -0.52162700000000    1.91703500000000
H         5.40339000000000   -0.96853700000000    1.35934000000000
O         1.93607100000000    1.40398600000000   -4.45847900000000
H         2.12605000000000    0.68494300000000   -5.08849900000000
O         2.18544000000000   -1.00255300000000   -4.66889600000000
H         2.78215800000000   -1.77264200000000   -4.57034400000000
O         5.02276800000000    1.20754500000000   -0.06403900000000
H         5.37819000000000    0.44520500000000   -0.55181300000000
O         1.45030200000000   -3.76598000000000   -2.89950000000000
H         2.05898400000000   -4.46722300000000   -2.61453000000000
O         2.14298600000000   -4.75980700000000   -0.79824200000000
H         1.57492800000000   -5.36592600000000   -0.25199100000000
O         3.61734800000000   -3.79804500000000    0.86377600000000
H         3.38043800000000   -4.60678500000000    0.36443300000000
O         3.97789200000000    3.27235300000000    0.83457400000000
H         4.78235300000000    2.96142300000000    0.38668100000000
O         3.19025400000000    2.70520600000000    3.17123400000000
H         3.89199400000000    3.18466900000000    2.68760900000000
O         1.36007100000000    4.38363200000000    2.67450800000000
H         2.11074300000000    4.22076400000000    3.27551800000000
O        -0.27934200000000    3.25265300000000    4.05557300000000
H        -0.53752100000000    4.17754900000000    3.90595300000000
O        -2.15611700000000    4.09465100000000    2.45356000000000
H        -2.79732600000000    3.87980300000000    3.15878400000000
O        -4.58682400000000    2.51791300000000   -0.08714600000000
H        -4.37112300000000    3.16438500000000   -0.78300300000000
O        -4.48573500000000   -2.46207700000000   -0.77107900000000
H        -4.53923000000000   -3.41299800000000   -0.55998300000000
O        -4.03066200000000   -1.73009100000000    2.92949200000000
H        -4.06361300000000   -1.23063300000000    3.77029100000000
O        -3.27931200000000    2.14276900000000    3.60488000000000
H        -4.17821200000000    1.77470900000000    3.49280600000000
O        -4.79292200000000    1.03626300000000    1.97638700000000
H        -5.33278900000000    1.56858700000000    1.36707900000000
O        -3.20543400000000   -4.27277700000000    0.36053300000000
H        -3.13548800000000   -4.61268100000000    1.27862700000000
O        -2.51306700000000   -3.73099000000000    2.63230000000000
H        -3.29392200000000   -3.40835700000000    3.12625000000000
O        -2.48429600000000   -0.69954000000000    4.63239800000000
H        -2.13192000000000   -1.47338200000000    5.12045500000000
O         1.26239200000000    1.07141200000000    4.87128000000000
H         0.88541500000000    1.96541800000000    4.92880700000000
O         1.13442100000000   -1.40505200000000    5.05798000000000
H         1.51757500000000   -0.62997500000000    5.50218000000000
O         3.10946800000000   -1.88291900000000    3.66523600000000
H         3.91769100000000   -1.43924600000000    3.35325800000000
O        -5.10188100000000    0.15612400000000   -0.99837600000000
H        -5.26315700000000   -0.80165600000000   -0.91890500000000
O        -2.97720200000000    3.71703900000000   -1.98740300000000
H        -2.91802600000000    3.88904200000000   -2.94145200000000
O        -0.69377500000000    4.78617800000000   -2.18743600000000
H        -1.06611500000000    5.37293800000000   -1.50192700000000
O        -0.70063600000000    5.05952700000000    0.27821500000000
H         0.08832000000000    5.46186400000000    0.68450500000000
O         2.77729400000000    3.88263100000000   -1.97226000000000
H         2.28794000000000    4.28792100000000   -2.73146100000000
O        -4.25488400000000    0.77339500000000   -3.21017300000000
H        -5.05198100000000    0.70929700000000   -2.64063400000000
O        -1.24600300000000   -0.09596200000000   -4.89016200000000
H        -1.09409800000000   -0.91610400000000   -5.38714000000000
O         0.27846900000000   -5.03868400000000    0.74199700000000
H        -0.47215000000000   -5.50275700000000    0.33007700000000
O        -3.25658600000000   -1.29435900000000   -4.04485100000000
H        -3.90243700000000   -0.57286100000000   -4.21260200000000
O        -1.28986300000000   -4.77257800000000   -1.13718200000000
H        -2.01950200000000   -4.65853600000000   -1.77075300000000
O         4.44646300000000   -0.58608700000000   -1.82720400000000
H         4.41161700000000    0.16671700000000   -2.45479900000000
O         1.96900000000000   -3.88733800000000    2.63158600000000
H         2.61543900000000   -3.66668800000000    3.32725200000000
O         0.00557500000000   -2.24364100000000   -4.49106100000000
H         0.53908200000000   -3.03469200000000   -4.30869400000000
O        -2.87845400000000   -3.27206300000000   -2.68220400000000
H        -3.24008900000000   -2.95427000000000   -3.53067700000000
O        -0.87242800000000   -2.60808700000000    4.43515600000000
H        -0.05918800000000   -2.75853700000000    4.94443900000000
O         0.83244900000000    3.59534500000000   -3.52036200000000
H         1.13437700000000    2.99160900000000   -4.22382200000000
O        -2.38965100000000    2.21745400000000   -3.92987600000000
H        -2.20835400000000    1.57632800000000   -4.63570900000000
O         1.76677600000000    4.61681300000000    0.36738200000000
H         2.22448300000000    4.65054500000000   -0.49148900000000
