124
 energy: -275.140616648761 gnorm: 0.000233917544 xtb: 6.4.1 (a3dbbd7)
C         3.55599700000000   -0.73628400000000    0.83983400000000
C         3.59184400000000    0.85267800000000    0.76328800000000
C         3.52013100000000    1.18510000000000   -0.76438600000000
C         2.94987600000000   -1.10113100000000   -0.48178900000000
C         2.97379400000000   -0.10617200000000   -1.34954400000000
C         2.73372800000000   -2.51963200000000   -0.84243500000000
C         1.94367600000000   -3.28348000000000    0.31059500000000
C         2.83743400000000   -1.38854800000000    2.05976400000000
C         2.00608400000000   -2.73070400000000    1.78690200000000
C         1.81414100000000   -0.48988000000000    2.69502000000000
C         2.45517100000000    1.48856400000000    1.48282800000000
C         1.80319400000000    0.83925300000000    2.57653900000000
C         1.76494000000000    2.58190600000000    1.13094600000000
C         2.68682900000000    2.46687700000000   -1.21622800000000
C         1.95471900000000    3.36214900000000   -0.11603600000000
C         1.54300900000000    2.00833000000000   -2.06630800000000
C         2.58678500000000   -0.18636700000000   -2.79394700000000
C         1.52150000000000    0.86847000000000   -2.84101400000000
C         1.82321500000000   -2.66191600000000   -2.12645900000000
C         1.85388300000000   -1.53016500000000   -3.23215000000000
C         0.53699200000000   -3.15190600000000   -0.17389800000000
C         0.47234900000000   -2.78805600000000   -1.50674400000000
C        -0.59769500000000   -3.16438600000000    0.58982400000000
C         0.62205400000000   -2.38310800000000    2.38202000000000
C         0.63816800000000   -1.22379000000000    3.04904600000000
C        -0.60606000000000   -3.19159900000000    2.08939000000000
C        -0.50092300000000   -0.61443700000000    3.78036200000000
C         0.80982600000000    1.74927500000000    3.23969000000000
C         0.77050800000000    2.99942000000000    2.18822700000000
C        -0.52466200000000    0.98795300000000    3.56650300000000
C        -0.62082700000000    3.34692100000000    1.58204400000000
C         0.56161400000000    3.78699600000000   -0.79500300000000
C         0.37390900000000    2.71138200000000   -1.82119400000000
C        -0.71602900000000    3.94876400000000    0.10637600000000
C        -0.81102700000000    2.27634500000000   -2.36108800000000
C         0.33029100000000    0.38362400000000   -3.32598800000000
C         0.39719500000000   -1.03469200000000   -3.80012900000000
C        -0.82863000000000    1.08763300000000   -3.08380400000000
C        -0.72936200000000   -2.46183100000000   -2.05642000000000
C        -0.92958000000000   -1.77119300000000   -3.35969900000000
C        -1.80966700000000   -2.78114500000000    0.04368600000000
C        -1.88150000000000   -2.43334700000000   -1.27571300000000
C        -2.00824600000000   -2.53872600000000    2.47109900000000
C        -1.89838800000000   -1.11929900000000    3.15335400000000
C        -2.86949900000000   -2.56214800000000    1.05710700000000
C        -1.39972200000000    1.08003100000000    2.38146300000000
C        -1.42764000000000    2.11367100000000    1.49654200000000
C        -2.14219700000000   -0.05574400000000    2.14472000000000
C        -2.09223600000000    3.24935700000000   -0.48596400000000
C        -2.18311900000000    2.72065500000000   -1.95480700000000
C        -2.23464400000000    2.06097000000000    0.38580000000000
C        -2.09429800000000    0.43646700000000   -2.90150900000000
C        -2.12006700000000   -0.89036400000000   -2.90183900000000
C        -3.00586700000000   -1.73505200000000   -1.99989000000000
C        -3.09678700000000    1.36571800000000   -2.26917000000000
C        -3.69816300000000   -1.30208800000000    0.59365500000000
C        -2.92828400000000   -0.11722100000000    1.03283500000000
C        -2.97403600000000    0.93763300000000    0.14774300000000
C        -3.93490400000000   -0.96474900000000   -1.01150600000000
C        -3.79001400000000    0.65037100000000   -1.05771300000000
O         4.89831900000000   -1.19683500000000    0.84650300000000
H         5.43914600000000   -0.39706600000000    1.02678500000000
O         3.96434400000000   -3.14288800000000   -1.10418300000000
H         4.63404000000000   -2.76337500000000   -0.51714500000000
O         3.70851200000000    0.08333900000000   -3.58835100000000
H         3.77395800000000   -0.62500900000000   -4.24960700000000
O         4.81060700000000    1.28785900000000    1.30930600000000
H         5.29331000000000    1.74354900000000    0.59698800000000
O         2.56722600000000   -2.03148000000000   -4.32975300000000
H         2.67110000000000   -2.99417500000000   -4.16303600000000
O         2.16605800000000   -3.87065800000000   -2.77800400000000
H         2.66420300000000   -4.41331300000000   -2.14853100000000
O         4.85346100000000    1.34494300000000   -1.18258800000000
H         4.83048600000000    1.63449400000000   -2.10854700000000
O         2.34611100000000   -4.62785400000000    0.25881000000000
H         2.73454700000000   -4.84908900000000    1.12232200000000
O         2.54976300000000   -3.76698200000000    2.57593100000000
H         3.14116000000000   -3.32537300000000    3.22082800000000
O         3.79969300000000   -1.67943400000000    3.04650800000000
H         4.66426500000000   -1.70688700000000    2.59195100000000
O         3.54207300000000    3.29208200000000   -1.95406800000000
H         3.78729600000000    4.03151300000000   -1.36565000000000
O         2.71761300000000    4.50524300000000    0.12508200000000
H         2.28999100000000    5.21900700000000   -0.39602000000000
O         0.82422700000000    5.00992100000000   -1.44122500000000
H         0.14661600000000    5.64305500000000   -1.13926900000000
O        -0.95155500000000    5.31923200000000    0.19839100000000
H        -1.89182600000000    5.41773200000000    0.44118200000000
O        -3.12445400000000    4.17102600000000   -0.27133700000000
H        -3.36844500000000    4.50637400000000   -1.15608600000000
O        -2.68822900000000    3.76420200000000   -2.73874700000000
H        -3.30013100000000    3.35165300000000   -3.38222500000000
O        -4.06907400000000    1.72898500000000   -3.20521600000000
H        -4.91129600000000    1.76866100000000   -2.70883200000000
O        -5.07853600000000    1.20863700000000   -0.97101900000000
H        -5.65560200000000    0.55207000000000   -0.55120300000000
O        -5.26523100000000   -1.26801500000000   -1.28815600000000
H        -5.28570100000000   -1.88746000000000   -2.03504800000000
O        -3.79619400000000   -2.65380200000000   -2.73213700000000
H        -3.23885400000000   -2.98724300000000   -3.45385900000000
O        -0.43557300000000   -0.93476300000000    5.12600600000000
H        -1.32627600000000   -0.75320800000000    5.47951500000000
O        -2.84071100000000   -1.02563500000000    4.18929700000000
H        -3.20102800000000   -1.91653700000000    4.33343300000000
O        -1.13436300000000    1.60133800000000    4.66686600000000
H        -0.44265400000000    1.68627200000000    5.34401800000000
O        -2.66334600000000   -3.35141300000000    3.38755000000000
H        -2.34600600000000   -4.25931500000000    3.26633000000000
O         1.31753700000000    2.20998100000000    4.46187800000000
H         1.75144900000000    3.06446100000000    4.28134200000000
O        -1.35375000000000   -2.66360500000000   -4.35892700000000
H        -0.97772400000000   -2.32545900000000   -5.19312200000000
O         0.42786500000000   -1.10142900000000   -5.20375100000000
H         1.31227700000000   -1.43098100000000   -5.45342800000000
O        -0.56277600000000   -4.48954100000000    2.63935000000000
H         0.36251400000000   -4.75795600000000    2.70538300000000
O         1.27198500000000    4.13378900000000    2.84224100000000
H         0.52432400000000    4.75226400000000    2.95256100000000
O        -1.23821800000000    4.28637600000000    2.44763900000000
H        -1.63882300000000    3.79945900000000    3.18172900000000
O        -4.95815400000000   -1.33084500000000    1.19249300000000
H        -5.13117500000000   -2.24571000000000    1.47201400000000
O        -3.75308300000000   -3.65431900000000    1.18107900000000
H        -3.99501300000000   -3.95616500000000    0.29649600000000
