144
 energy: -320.796099684784 gnorm: 0.000293087806 xtb: 6.4.1 (a3dbbd7)
C         3.37907300000000    1.92798000000000   -0.23437300000000
C         3.10861500000000    1.83228900000000    1.37632900000000
C         1.79768500000000    2.63946900000000    1.59297400000000
C         2.24720200000000    2.89572500000000   -0.74983800000000
C         1.16194400000000    2.79086200000000    0.24730500000000
C         1.76391700000000    2.77898100000000   -2.21270300000000
C         1.97413900000000    1.37975600000000   -2.94114100000000
C         3.56036200000000    0.55225500000000   -0.94614900000000
C         3.07416700000000    0.36624400000000   -2.43327500000000
C         2.97651200000000   -0.63699100000000   -0.24211000000000
C         3.08652800000000    0.39250500000000    2.01754300000000
C         2.78727600000000   -0.70090400000000    1.05087300000000
C         2.08059200000000    0.05193700000000    3.19728200000000
C         0.74512600000000    1.98648400000000    2.39207600000000
C         0.84173500000000    0.86152200000000    3.06785700000000
C        -0.56709200000000    2.70383700000000    2.55954600000000
C         0.02308100000000    3.74614200000000    0.19219400000000
C        -1.07778200000000    3.35824700000000    1.24490100000000
C         0.16192400000000    3.05902300000000   -2.35102300000000
C        -0.68904300000000    3.73611100000000   -1.21366900000000
C         0.61438800000000    0.80863000000000   -2.95185000000000
C        -0.39126000000000    1.70119100000000   -2.64710100000000
C         0.30805800000000   -0.52955500000000   -3.06304900000000
C         2.64203100000000   -1.20484800000000   -2.51121900000000
C         3.06349000000000   -1.83249400000000   -1.13640800000000
C         1.20418100000000   -1.46899600000000   -2.73765700000000
C         2.31248500000000   -3.11903500000000   -0.64886000000000
C         2.60198300000000   -1.98488900000000    1.78436300000000
C         1.83992100000000   -1.54794000000000    3.10426400000000
C         1.97083300000000   -3.09781200000000    0.92622700000000
C         0.31455200000000   -1.94519800000000    3.24474600000000
C        -0.47378800000000    0.46965000000000    3.67771500000000
C        -1.48973800000000    1.60371100000000    3.26630900000000
C        -0.69842900000000   -0.84408300000000    3.03820100000000
C        -2.72374700000000    1.12647300000000    2.40905500000000
C        -1.96433600000000    2.47522400000000    0.44265900000000
C        -2.12836300000000    3.05479100000000   -0.92422900000000
C        -2.68289700000000    1.50672200000000    0.95492400000000
C        -1.67077200000000    1.27552900000000   -2.60732800000000
C        -2.74195600000000    2.04414300000000   -1.93338600000000
C        -1.02404500000000   -1.06185500000000   -3.49803000000000
C        -2.17942900000000   -0.03476500000000   -3.16117000000000
C         0.58112200000000   -2.81398000000000   -2.66127000000000
C         0.89899200000000   -3.47675300000000   -1.29734600000000
C        -0.98725300000000   -2.55704600000000   -2.93266000000000
C         0.47676000000000   -3.01394600000000    0.96729900000000
C        -0.22835200000000   -3.04525800000000    2.27441500000000
C        -0.08871200000000   -3.17794400000000   -0.21550500000000
C        -1.80238400000000   -1.24455900000000    2.43751900000000
C        -3.03785000000000   -0.41489900000000    2.32472700000000
C        -1.75325400000000   -2.71275100000000    2.09381700000000
C        -3.76616300000000    0.77321900000000    0.22043900000000
C        -3.68342900000000    0.86834500000000   -1.34694300000000
C        -3.18983600000000   -0.46119500000000   -2.06670200000000
C        -3.68818900000000   -0.63622700000000    0.88741900000000
C        -2.00830800000000   -2.74430300000000   -1.74972000000000
C        -1.51946000000000   -3.48289200000000   -0.45546400000000
C        -2.41007300000000   -2.90880000000000    0.68454100000000
C        -2.55505100000000   -1.46167300000000   -1.17042800000000
C        -2.81770000000000   -1.56842000000000    0.12069800000000
O         4.60488500000000    2.57249900000000   -0.43346200000000
H         4.47215400000000    3.51471700000000   -0.23774100000000
O         2.43729500000000    3.71397500000000   -3.00032000000000
H         2.81240100000000    4.37932400000000   -2.39152600000000
O         0.49910000000000    5.05921600000000    0.46486800000000
H        -0.07345600000000    5.66768000000000   -0.03683700000000
O         4.17237700000000    2.50450700000000    1.99160100000000
H         3.80449700000000    3.32021900000000    2.37985300000000
O        -0.92029500000000    5.07074400000000   -1.56077900000000
H        -0.84121600000000    5.11812500000000   -2.53239100000000
O        -0.01508800000000    3.86032900000000   -3.49722400000000
H         0.82199200000000    3.83838000000000   -3.99477900000000
O         2.15931900000000    3.89042700000000    2.18492700000000
H         1.40656100000000    4.21351900000000    2.70268700000000
O         2.23800500000000    1.65757100000000   -4.29498700000000
H         3.19268100000000    1.82634500000000   -4.37167000000000
O         2.63377400000000    0.36675400000000    4.43709600000000
H         3.23797100000000   -0.35925300000000    4.67239800000000
O         0.12712400000000   -2.39292100000000    4.58302900000000
H        -0.20245000000000   -3.30769900000000    4.52482000000000
O         2.54865800000000   -2.12877900000000    4.15901600000000
H         1.89359700000000   -2.42446800000000    4.81866600000000
O         4.38204400000000    0.11597200000000    2.51723900000000
H         4.83570100000000    0.97699000000000    2.58616000000000
O        -0.04332400000000   -4.27827300000000    2.91445800000000
H        -0.39376800000000   -4.98338000000000    2.35920700000000
O        -2.42893200000000   -3.46062400000000    3.06901300000000
H        -3.31160900000000   -3.08362200000000    3.18813300000000
O        -3.58004700000000   -3.67992000000000    0.82698400000000
H        -3.40398100000000   -4.54287100000000    0.42025000000000
O        -1.71583900000000   -4.86832700000000   -0.51072600000000
H        -0.95501600000000   -5.25355500000000   -0.98406500000000
O         4.95086600000000    0.26753500000000   -0.92440500000000
H         5.42333200000000    1.10790900000000   -1.04538500000000
O         4.18659400000000    0.53793800000000   -3.26315000000000
H         4.22181600000000   -0.24059200000000   -3.85281300000000
O        -4.29234500000000   -1.12636400000000   -2.63432100000000
H        -5.00514200000000   -0.45904900000000   -2.70394700000000
O        -4.98591800000000   -1.16021300000000    0.97611800000000
H        -4.91760300000000   -2.11985300000000    1.09358400000000
O        -3.10321200000000   -3.49196000000000   -2.24711600000000
H        -3.79889100000000   -2.86313800000000   -2.51872400000000
O        -1.34947200000000   -3.42189100000000   -3.96322200000000
H        -2.18105200000000   -3.86070700000000   -3.68217900000000
O        -4.98095000000000    1.10419100000000   -1.80555500000000
H        -4.88564700000000    1.78316800000000   -2.51306500000000
O        -4.97418600000000    1.38298900000000    0.62831800000000
H        -5.69683200000000    0.79465700000000    0.36147700000000
O        -2.92905100000000    0.23982700000000   -4.31233400000000
H        -2.34408300000000    0.07746100000000   -5.07315900000000
O        -0.95914900000000   -1.14481000000000   -4.90338000000000
H        -1.07836600000000   -2.08943100000000   -5.12952900000000
O        -1.82137100000000    4.51611400000000    1.55675500000000
H        -1.43635600000000    4.87114000000000    2.37895300000000
O        -3.91491800000000   -0.80754100000000    3.33902900000000
H        -4.35606700000000    0.00827400000000    3.64749300000000
O        -0.47195900000000    0.35712000000000    5.08073800000000
H        -0.17322600000000   -0.53382800000000    5.31664100000000
O        -0.35877900000000    3.76837200000000    3.46963400000000
H        -0.93827800000000    3.56164400000000    4.23770200000000
O         3.37397500000000   -1.84521500000000   -3.52793700000000
H         4.09790300000000   -2.32050200000000   -3.05089200000000
O        -1.98470900000000    2.19118000000000    4.43416000000000
H        -1.75003500000000    1.60270400000000    5.17485100000000
O         0.82464200000000   -4.87388700000000   -1.48290100000000
H         1.16815200000000   -5.04868900000000   -2.38023600000000
O         3.15504600000000   -4.18716300000000   -0.92670800000000
H         3.05035500000000   -4.82050800000000   -0.19217700000000
O         2.34821400000000   -4.34228300000000    1.45423400000000
H         3.16133100000000   -4.18581300000000    1.96758500000000
O         2.80547900000000    4.22765900000000   -0.62263800000000
H         2.18651900000000    4.76102900000000   -0.08094400000000
O         4.40752100000000   -2.23028200000000   -1.27128000000000
H         4.97272000000000   -1.45208000000000   -1.09886100000000
O         3.87094400000000   -2.48787500000000    2.13086500000000
H         4.40583500000000   -1.75227600000000    2.47298500000000
O         1.08558900000000   -3.66274800000000   -3.66986800000000
H         1.88763400000000   -3.25751400000000   -4.03386700000000
O        -3.84877600000000    1.73077100000000    3.00632100000000
H        -4.51878600000000    1.85850300000000    2.30617900000000
O        -3.07828800000000    4.09374000000000   -0.83952900000000
H        -2.87292400000000    4.63011300000000   -0.05653600000000
O        -3.50228500000000    2.76157000000000   -2.87339500000000
H        -3.69870200000000    3.62562100000000   -2.46727400000000
