136
 energy: -302.510265501866 gnorm: 0.000259354015 xtb: 6.4.1 (a3dbbd7)
C        -2.41714700000000   -3.10200300000000    0.13036400000000
C        -1.15986000000000   -3.39960800000000   -0.80463500000000
C        -1.41404900000000   -2.60834700000000   -2.11277100000000
C        -3.17024900000000   -1.89710100000000   -0.59901000000000
C        -2.19900000000000   -1.42159100000000   -1.61366100000000
C        -3.86959900000000   -0.75217400000000    0.18146100000000
C        -3.39860000000000   -0.50170600000000    1.65575600000000
C        -2.07421600000000   -2.97156100000000    1.67079300000000
C        -2.52309400000000   -1.60168000000000    2.38108600000000
C        -0.51355700000000   -3.15266900000000    2.15083800000000
C         0.17380900000000   -3.05170700000000   -0.24108500000000
C         0.54803100000000   -3.58097000000000    1.10553900000000
C         1.22735400000000   -2.68966100000000   -0.95613200000000
C        -0.15905600000000   -2.21236400000000   -2.99561700000000
C         1.28068600000000   -2.52008100000000   -2.42578700000000
C        -0.11849900000000   -0.72332300000000   -3.05807600000000
C        -2.57147100000000   -0.36916600000000   -2.60463100000000
C        -1.19404100000000    0.11476800000000   -2.91408800000000
C        -3.70503100000000    0.71217400000000   -0.50535700000000
C        -3.30283700000000    0.88564200000000   -1.99958300000000
C        -2.67521800000000    0.83238700000000    1.58916900000000
C        -2.77343300000000    1.44148700000000    0.42324900000000
C        -2.05820700000000    1.40375500000000    2.82901200000000
C        -1.23282300000000   -0.96513400000000    2.77304800000000
C        -0.15148100000000   -1.79966000000000    2.63057900000000
C        -1.03399100000000    0.35279800000000    3.10076400000000
C         1.11760400000000   -1.30283000000000    2.74050200000000
C         2.09933600000000   -3.13044700000000    1.29080700000000
C         2.51874800000000   -2.81102200000000   -0.21929400000000
C         2.37433000000000   -2.00742200000000    2.36470900000000
C         3.43979100000000   -1.58629300000000   -0.45527600000000
C         2.19305300000000   -1.28979100000000   -2.84023500000000
C         1.15914000000000   -0.22162400000000   -2.91986600000000
C         3.38616900000000   -0.87932100000000   -1.89461000000000
C         1.33454500000000    1.10613600000000   -2.67037900000000
C        -1.01747800000000    1.44546000000000   -2.59843700000000
C        -2.29830700000000    2.13851900000000   -2.27382900000000
C         0.25089400000000    1.94536800000000   -2.51525600000000
C        -2.49675800000000    2.90020800000000    0.26349800000000
C        -2.04681100000000    3.27960900000000   -1.20356400000000
C        -1.21969200000000    2.73442900000000    2.64196900000000
C        -1.35610400000000    3.40094200000000    1.21316100000000
C         0.24154900000000    0.85777500000000    3.23396500000000
C         1.32406600000000    0.03043200000000    3.04142500000000
C         0.28053000000000    2.35096400000000    3.05485800000000
C         3.28092600000000   -0.75919400000000    1.95418100000000
C         3.16930900000000   -0.47462800000000    0.50636000000000
C         2.74517700000000    0.44796200000000    2.80570200000000
C         3.48474500000000    0.69273100000000   -1.51669500000000
C         2.62928800000000    1.72709200000000   -2.32000900000000
C         3.18275800000000    0.72373800000000   -0.05169300000000
C         0.61962200000000    3.30334300000000   -2.05180200000000
C        -0.47708000000000    3.76992000000000   -1.03914600000000
C        -0.16681500000000    3.29240000000000    0.32550500000000
C         2.17104700000000    3.07543500000000   -1.56480500000000
C         1.30998900000000    2.41627400000000    1.98727400000000
C         2.71909600000000    1.90872000000000    2.14642300000000
C         3.26479900000000    2.02060000000000    0.66556900000000
C         1.06000500000000    2.88951600000000    0.72732000000000
C         2.34312600000000    3.09323700000000   -0.02319900000000
O        -3.25477600000000   -4.21477700000000   -0.04049000000000
H        -3.44358700000000   -4.56534500000000    0.85415100000000
O        -5.23893900000000   -1.01425100000000    0.25181900000000
H        -5.43542700000000   -1.72114500000000   -0.38963900000000
O        -3.26672500000000   -0.91636600000000   -3.70400500000000
H        -4.06530800000000   -0.38328400000000   -3.83970700000000
O        -1.07836100000000   -4.78598700000000   -1.04950200000000
H        -1.99875100000000   -5.09643400000000   -1.14762100000000
O        -4.46566000000000    1.09387800000000   -2.75760300000000
H        -5.15460500000000    1.36937100000000   -2.11544800000000
O        -4.97267900000000    1.34608700000000   -0.37045700000000
H        -5.53657200000000    0.70174500000000    0.11432100000000
O        -2.26282500000000   -3.43328900000000   -2.90371600000000
H        -2.39868400000000   -2.96351400000000   -3.74400500000000
O        -4.57384700000000   -0.28515500000000    2.38544400000000
H        -4.33143700000000    0.15271100000000    3.21771700000000
O        -3.65558200000000    3.60253400000000    0.63950800000000
H        -4.42153100000000    3.18490700000000    0.21884400000000
O        -3.02832200000000    1.54486500000000    3.83202000000000
H        -2.96544300000000    2.47226700000000    4.13374700000000
O        -0.28905300000000   -2.77566800000000   -4.26564500000000
H        -0.02092100000000   -3.70546400000000   -4.20258800000000
O        -3.23454800000000   -1.95959500000000    3.55426800000000
H        -2.60313300000000   -2.06025400000000    4.27899000000000
O        -2.77320400000000   -4.01322400000000    2.29554200000000
H        -3.30860100000000   -3.60529400000000    3.00948700000000
O         1.80628600000000   -3.69163900000000   -2.99924500000000
H         2.24414500000000   -3.37650000000000   -3.82157600000000
O         2.68453400000000   -1.61253000000000   -4.11835100000000
H         3.63270500000000   -1.39094400000000   -4.12804300000000
O         4.54487700000000   -1.23949400000000   -2.58920400000000
H         5.25631500000000   -0.65192300000000   -2.28022200000000
O        -1.71512200000000    3.65248000000000    3.57333500000000
H        -0.96618800000000    3.91883300000000    4.13733500000000
O        -1.55363000000000    4.78835900000000    1.39212700000000
H        -2.50188500000000    4.91723600000000    1.55899100000000
O         3.31723900000000    2.07231300000000   -3.48671400000000
H         4.25970600000000    2.13806900000000   -3.25981300000000
O         2.93609400000000    4.12597400000000   -2.07321600000000
H         2.50928000000000    4.37460200000000   -2.91742000000000
O         2.83768700000000    4.34952000000000    0.38471300000000
H         3.04583800000000    4.84690700000000   -0.42679800000000
O         4.60304700000000    2.44104600000000    0.64976600000000
H         4.59837400000000    3.32717000000000    1.05365200000000
O         3.43298700000000    2.78521400000000    2.97819900000000
H         3.87460200000000    2.22677400000000    3.65081800000000
O         3.48259800000000    0.53189000000000    3.99403700000000
H         4.14528200000000   -0.17809900000000    3.97127700000000
O         2.83886400000000   -4.22816100000000    1.72392000000000
H         2.42177000000000   -5.02592800000000    1.35798400000000
O         3.21405200000000   -3.95068500000000   -0.69448900000000
H         2.89258100000000   -4.14789500000000   -1.59469000000000
O         0.55829300000000   -4.99801100000000    1.05786800000000
H         0.00708500000000   -5.27213200000000    0.29731200000000
O        -0.49885900000000   -4.03737700000000    3.23027800000000
H        -0.29563000000000   -4.92034200000000    2.88100000000000
O         4.76589100000000   -2.00989500000000   -0.21867400000000
H         4.79135300000000   -2.95923800000000   -0.45028400000000
O         2.93746800000000   -2.55876700000000    3.52153700000000
H         3.26873800000000   -3.44315900000000    3.29450800000000
O         4.61936900000000   -0.97780500000000    2.30329600000000
H         5.03982100000000   -1.47218400000000    1.57753200000000
O         4.84791800000000    1.05598800000000   -1.68622800000000
H         5.10279700000000    1.61405700000000   -0.92738400000000
O        -2.79420500000000    4.39393100000000   -1.55778600000000
H        -2.82740300000000    4.41481600000000   -2.53077500000000
O         0.64936300000000    3.09719600000000    4.18973600000000
H         1.59014500000000    3.31677600000000    4.11249000000000
O        -2.75380100000000    2.79408400000000   -3.43796700000000
H        -3.59632100000000    2.37778300000000   -3.69531100000000
O         0.66432200000000    4.20673600000000   -3.12328400000000
H         0.26850800000000    5.03550000000000   -2.80105900000000
O        -4.23879200000000   -2.46624300000000   -1.36062200000000
H        -3.84757700000000   -3.12132600000000   -1.97066600000000
O        -0.47466400000000    5.17496100000000   -1.10928400000000
H        -0.97851000000000    5.50133400000000   -0.34267200000000
