120
 energy: -265.951437680000 gnorm: 0.000399951063 xtb: 6.4.1 (a3dbbd7)
C         3.56093500000000   -0.68338100000000    0.77388700000000
C         3.57952800000000    0.88437100000000    0.52334000000000
C         3.46802100000000    1.05270700000000   -1.02611800000000
C         2.91334400000000   -1.19712500000000   -0.48041900000000
C         2.91465600000000   -0.29362900000000   -1.44556500000000
C         2.71490600000000   -2.65689200000000   -0.67496600000000
C         1.97758100000000   -3.29579300000000    0.57080500000000
C         2.89491500000000   -1.19436500000000    2.08568100000000
C         2.06977100000000   -2.56284500000000    1.96823100000000
C         1.88310000000000   -0.24538100000000    2.67745800000000
C         2.44467000000000    1.56554500000000    1.19843400000000
C         1.85463000000000    1.06801500000000    2.39889800000000
C         1.71915900000000    2.59034200000000    0.72992900000000
C         2.63353500000000    2.29424100000000   -1.60053200000000
C         1.88859400000000    3.25794900000000   -0.58003200000000
C         1.49803800000000    1.75346900000000   -2.42120400000000
C         2.52403500000000   -0.54634300000000   -2.86061300000000
C         1.49329200000000    0.54710700000000   -3.06242900000000
C         1.80370200000000   -3.00130700000000   -1.91522400000000
C         1.71496700000000   -1.90761300000000   -3.06851600000000
C         0.56020200000000   -3.34179700000000    0.06210000000000
C         0.46003100000000   -3.24965600000000   -1.26641200000000
C        -0.58618200000000   -3.27164100000000    0.89422900000000
C         0.70410100000000   -2.15442500000000    2.54125200000000
C         0.74177100000000   -0.93874900000000    3.15739400000000
C        -0.52154700000000   -2.71261400000000    2.13575200000000
C        -0.41492700000000   -0.25267600000000    3.79791700000000
C         0.86459800000000    2.05179000000000    2.96324900000000
C         0.78563200000000    3.15112300000000    1.76865600000000
C        -0.45601200000000    1.32024800000000    3.40526600000000
C        -0.62087200000000    3.45961700000000    1.16254200000000
C         0.50130100000000    3.62480700000000   -1.28624800000000
C         0.30230100000000    2.46773400000000   -2.21625000000000
C        -0.75400200000000    3.87861900000000   -0.37634200000000
C        -0.89357200000000    1.98881200000000   -2.66234000000000
C         0.25465600000000   -0.02099100000000   -3.38301900000000
C         0.28497900000000   -1.41505200000000   -3.21686900000000
C        -0.92283700000000    0.69307400000000   -3.19785500000000
C        -0.86361500000000   -3.26486500000000   -1.97422200000000
C        -0.86927500000000   -2.01148800000000   -2.80810400000000
C        -1.86594800000000   -3.02237900000000    0.29872200000000
C        -2.00318900000000   -2.91697400000000   -1.02104200000000
C        -1.87911400000000   -2.28902900000000    2.64877400000000
C        -1.81927500000000   -0.83109400000000    3.23414500000000
C        -2.84367300000000   -2.53717100000000    1.32928300000000
C        -1.36203700000000    1.29002200000000    2.23834400000000
C        -1.42392100000000    2.21683700000000    1.24182400000000
C        -2.08967000000000    0.12546800000000    2.13772700000000
C        -2.14177000000000    3.11281600000000   -0.84263900000000
C        -2.26583800000000    2.43463100000000   -2.24651500000000
C        -2.24803000000000    2.02498200000000    0.15707100000000
C        -2.12847800000000    0.04627500000000   -2.87184700000000
C        -2.07573700000000   -1.28714400000000   -2.61209400000000
C        -3.03639500000000   -2.08254300000000   -1.74603300000000
C        -3.15503600000000    1.02073500000000   -2.38106200000000
C        -3.63976600000000   -1.31298300000000    0.75742100000000
C        -2.87155000000000   -0.08508900000000    1.04162400000000
C        -2.97343100000000    0.87085700000000    0.05517100000000
C        -3.93723100000000   -1.18860200000000   -0.82659300000000
C        -3.81704900000000    0.43047300000000   -1.08319900000000
O         4.90596100000000   -1.13548700000000    0.78391400000000
H         5.44933400000000   -0.32705800000000    0.89504900000000
O         3.96431900000000   -3.26131000000000   -0.89928200000000
H         4.61454400000000   -2.86178300000000   -0.30402000000000
O         3.65236100000000   -0.48565300000000   -3.67986600000000
H         3.48372400000000   -1.10219900000000   -4.41566800000000
O         4.79843300000000    1.40046100000000    0.99525700000000
H         5.28818300000000    1.72240700000000    0.21851700000000
O         2.17093500000000   -2.46441000000000   -4.27118200000000
H         2.40556000000000   -3.39349200000000   -4.07246300000000
O         2.26363100000000   -4.19915900000000   -2.50542900000000
H         3.05994700000000   -4.46762200000000   -2.01735700000000
O         4.79214200000000    1.15877000000000   -1.49646400000000
H         4.76686100000000    1.08612800000000   -2.46235800000000
O         2.45823800000000   -4.60944100000000    0.67399900000000
H         2.62548700000000   -4.78700700000000    1.61455000000000
O         2.63172000000000   -3.49367600000000    2.86163300000000
H         3.17920500000000   -2.98170400000000    3.48797100000000
O         3.89158900000000   -1.36228200000000    3.06487500000000
H         4.73153300000000   -1.51026700000000    2.59010400000000
O         3.48967500000000    3.05757000000000   -2.39947600000000
H         3.85314500000000    3.76753800000000   -1.84519000000000
O         2.61780400000000    4.44451400000000   -0.38971800000000
H         2.26631700000000    5.06095600000000   -1.07191200000000
O         0.77768600000000    4.78423500000000   -2.04257200000000
H         0.07169000000000    5.42703000000000   -1.85678100000000
O        -0.98790300000000    5.25087400000000   -0.44727900000000
H        -1.77977100000000    5.42913700000000    0.08566000000000
O        -3.17852300000000    4.03626800000000   -0.68505100000000
H        -3.41673000000000    4.33090700000000   -1.58355700000000
O        -2.82828600000000    3.37307600000000   -3.11612000000000
H        -3.44121500000000    2.87713500000000   -3.69612600000000
O        -4.14864200000000    1.25251800000000   -3.33291200000000
H        -4.97514100000000    1.37324000000000   -2.81989400000000
O        -5.11629700000000    0.95989800000000   -1.02566400000000
H        -5.71500200000000    0.21473600000000   -0.82493000000000
O        -5.27245200000000   -1.52719900000000   -1.02066200000000
H        -5.31005600000000   -2.19634600000000   -1.72616100000000
O        -3.89379900000000   -2.89020000000000   -2.53506200000000
H        -3.36146700000000   -3.61607600000000   -2.88871900000000
O        -0.34643800000000   -0.40251100000000    5.17384900000000
H        -1.04947500000000    0.15690400000000    5.54600600000000
O        -2.79829100000000   -0.70681200000000    4.22878700000000
H        -2.76679400000000   -1.53491700000000    4.73970600000000
O        -1.02718500000000    2.02849300000000    4.46987100000000
H        -0.27421200000000    2.38241800000000    4.98076000000000
O        -2.32210100000000   -3.12351100000000    3.68078100000000
H        -2.90130500000000   -3.79320400000000    3.26894200000000
O         1.38117500000000    2.65637100000000    4.11958700000000
H         1.75265100000000    3.51564900000000    3.85233100000000
O        -1.22545900000000    4.50163500000000    1.89384100000000
H        -1.32994900000000    4.21275600000000    2.80888600000000
O        -3.75269900000000   -3.55214300000000    1.65476400000000
H        -4.63751400000000   -3.13768200000000    1.67686600000000
O        -4.89876500000000   -1.28905500000000    1.40424400000000
H        -4.80332000000000   -0.81175000000000    2.23997600000000
O         1.33698800000000    4.34597900000000    2.28455700000000
H         1.79090200000000    4.80804900000000    1.56417600000000
O        -1.14249700000000   -4.46209600000000   -2.66919000000000
H        -0.30951700000000   -4.83579700000000   -2.98149500000000
