132
 energy: -293.456154429014 gnorm: 0.000214107841 xtb: 6.4.1 (a3dbbd7)
C         2.40408200000000   -2.13866600000000   -1.82158700000000
C         1.29095700000000   -3.16462700000000   -1.38810300000000
C         1.51237800000000   -3.33913700000000    0.14955600000000
C         2.69810300000000   -1.41219800000000   -0.53208300000000
C         2.26276500000000   -2.08454700000000    0.52176900000000
C         3.74799900000000   -0.36147500000000   -0.46691200000000
C         3.49339500000000    0.74018300000000   -1.54970000000000
C         2.12668400000000   -1.22928900000000   -3.06036200000000
C         2.61370500000000    0.30386700000000   -2.80495600000000
C         0.60851800000000   -1.08917100000000   -3.52655900000000
C        -0.07949700000000   -2.65747600000000   -1.66825300000000
C        -0.43243700000000   -2.13539900000000   -3.03200100000000
C        -1.12994300000000   -2.81971300000000   -0.88202500000000
C         0.26301500000000   -3.52129400000000    1.09181000000000
C        -1.17176700000000   -3.48525900000000    0.44864700000000
C         0.20090800000000   -2.39622300000000    2.08720700000000
C         2.67427500000000   -1.84562500000000    1.93345900000000
C         1.40291300000000   -1.94595200000000    2.85856200000000
C         3.73873400000000    0.39254100000000    0.89779600000000
C         3.24082400000000   -0.39576300000000    2.16114100000000
C         2.81792000000000    1.83978600000000   -0.71484800000000
C         2.89393200000000    1.60896100000000    0.58413400000000
C         2.12539000000000    3.01760000000000   -1.34499100000000
C         1.31143300000000    1.02275900000000   -2.66979200000000
C         0.23299600000000    0.24523300000000   -3.02205500000000
C         1.09109500000000    2.25149600000000   -2.10538500000000
C        -1.03948000000000    0.67353500000000   -2.79244300000000
C        -1.98790400000000   -1.64971600000000   -2.86551300000000
C        -2.39823700000000   -2.26263300000000   -1.48292400000000
C        -2.28341600000000   -0.10507300000000   -3.01058400000000
C        -2.85200300000000   -1.27944200000000   -0.46150700000000
C        -2.06238400000000   -2.69927400000000    1.51559700000000
C        -1.03067500000000   -1.95565500000000    2.30864700000000
C        -3.16684600000000   -1.77565200000000    0.92381500000000
C        -1.43805500000000   -1.01618100000000    3.39350100000000
C         1.11929300000000   -0.51977800000000    3.20972400000000
C         2.05313600000000    0.32203800000000    2.77185200000000
C        -0.20947100000000   -0.11030500000000    3.80494100000000
C         2.52311200000000    2.59794800000000    1.63073100000000
C         1.91314400000000    1.82931000000000    2.87086500000000
C         1.26833400000000    3.96049600000000   -0.38822400000000
C         1.40030500000000    3.61826700000000    1.15426800000000
C        -0.19294700000000    2.67197700000000   -1.83554900000000
C        -1.25662200000000    1.89131900000000   -2.18250500000000
C        -0.25678700000000    3.89007100000000   -1.00040300000000
C        -3.24803200000000    0.64041000000000   -1.97627900000000
C        -3.17978000000000   -0.01571400000000   -0.65103100000000
C        -2.69289400000000    2.13365400000000   -1.89105400000000
C        -3.55426400000000   -0.46336500000000    1.73420500000000
C        -2.57764500000000   -0.01965100000000    2.90442000000000
C        -3.79476600000000    0.62838000000000    0.54724900000000
C        -0.51782700000000    1.17358200000000    3.10436900000000
C         0.44318600000000    2.05216400000000    2.67605300000000
C         0.16371700000000    2.95257700000000    1.66599700000000
C        -1.76895900000000    1.17144900000000    2.52285200000000
C        -1.51471200000000    3.76630300000000   -0.05892100000000
C        -2.86453700000000    2.93832900000000   -0.55896800000000
C        -3.29523000000000    2.09695200000000    0.74504100000000
C        -1.09778600000000    2.98761800000000    1.13257500000000
C        -2.05685100000000    2.09057500000000    1.55768300000000
O         3.57596400000000   -2.88904800000000   -2.11286300000000
H         3.26636500000000   -3.81521600000000   -2.21458900000000
O         5.01504700000000   -0.95402400000000   -0.59960000000000
H         4.97465100000000   -1.62498200000000   -1.29556900000000
O         3.61560600000000   -2.82695800000000    2.26783600000000
H         4.14784500000000   -2.45229000000000    2.99195800000000
O         1.53314300000000   -4.36609100000000   -2.07572400000000
H         1.50467800000000   -5.09308300000000   -1.43838700000000
O         4.27757500000000   -0.50725400000000    3.10010700000000
H         5.02328300000000    0.02292500000000    2.75999000000000
O         5.05066900000000    0.86842900000000    1.16446900000000
H         5.63031700000000    0.47144800000000    0.49137000000000
O         2.36386100000000   -4.45332800000000    0.28922900000000
H         2.86415700000000   -4.35164000000000    1.11321600000000
O         4.74665400000000    1.18550500000000   -1.96799300000000
H         4.60668000000000    1.75048000000000   -2.74376800000000
O         3.66702400000000    3.32477400000000    2.03553000000000
H         4.45385000000000    2.83704100000000    1.74686400000000
O         3.03627300000000    3.74372100000000   -2.11341000000000
H         2.79782400000000    4.68071100000000   -2.03241800000000
O         0.42422900000000   -4.71230900000000    1.82029100000000
H        -0.06950200000000   -5.40229800000000    1.34476800000000
O         3.30062800000000    0.72971100000000   -3.94742200000000
H         3.29451200000000   -0.01633000000000   -4.57740000000000
O         2.83121400000000   -1.72261100000000   -4.15518300000000
H         3.53106200000000   -2.30832100000000   -3.80685000000000
O        -1.65707300000000   -4.78889300000000    0.30627700000000
H        -2.20018500000000   -4.95248100000000    1.10648500000000
O        -2.66301000000000   -3.66758800000000    2.33999000000000
H        -3.62615500000000   -3.60454100000000    2.19607000000000
O        -4.32744200000000   -2.59495300000000    0.81702500000000
H        -5.07675800000000   -2.06704200000000    1.14685100000000
O         1.74460600000000    5.25031500000000   -0.58899500000000
H         1.53662100000000    5.75877100000000    0.21572100000000
O         1.59629400000000    4.83111900000000    1.84597700000000
H         2.53513800000000    4.87763200000000    2.08970000000000
O        -4.79558900000000   -0.72693800000000    2.31313800000000
H        -4.83699800000000   -0.18948100000000    3.12975100000000
O        -3.37192000000000    0.28777200000000    4.02411500000000
H        -3.19368900000000   -0.41912700000000    4.67908900000000
O         1.61646800000000   -2.75189300000000    3.98153100000000
H         1.53653000000000   -3.67575400000000    3.70452100000000
O        -1.92475000000000   -1.73115500000000    4.49670300000000
H        -1.27318000000000   -1.63744200000000    5.21087100000000
O        -3.86531500000000    3.87764300000000   -0.81018000000000
H        -4.08572900000000    4.27950100000000    0.04786300000000
O        -3.25116800000000    2.86147700000000   -2.95953600000000
H        -3.90371300000000    3.47221200000000   -2.57837900000000
O        -4.57655000000000    0.64273100000000   -2.41470900000000
H        -4.55086200000000    1.02901600000000   -3.30801900000000
O        -4.29911800000000    2.81591100000000    1.41238100000000
H        -5.13193100000000    2.32772000000000    1.26779700000000
O         2.41888000000000    2.30450400000000    4.08618100000000
H         3.15942100000000    2.89890800000000    3.87906100000000
O        -0.16301000000000   -0.06056700000000    5.20825400000000
H         0.59116800000000    0.48440600000000    5.46437800000000
O        -2.76925000000000    0.15271800000000   -4.30416200000000
H        -3.17795700000000   -0.67370800000000   -4.61572700000000
O        -2.72806700000000   -2.25487600000000   -3.88333100000000
H        -2.85880000000000   -3.18303200000000   -3.64221000000000
O        -0.43172200000000   -3.22034300000000   -3.91254300000000
H         0.02445200000000   -2.93565300000000   -4.72502000000000
O        -1.93413600000000    5.04846300000000    0.30240600000000
H        -1.59026200000000    5.66037900000000   -0.37334000000000
O        -0.41590500000000    5.06313800000000   -1.77161800000000
H        -0.93447900000000    4.84662500000000   -2.55658900000000
O         0.61048000000000   -1.11426800000000   -4.94006300000000
H        -0.16382900000000   -0.62498400000000   -5.24971100000000
O        -5.19585600000000    0.68896400000000    0.35033400000000
H        -5.36594300000000    0.71444900000000   -0.60639800000000
O        -3.36788400000000   -3.25245600000000   -1.71811900000000
H        -3.84032000000000   -3.42635400000000   -0.89022100000000
