120
 energy: -265.958402487032 gnorm: 0.000252345373 xtb: 6.4.1 (a3dbbd7)
C        -3.55883100000000   -1.05976300000000   -0.52693900000000
C        -3.63340500000000    0.34058200000000   -1.30062900000000
C        -3.55612700000000    1.42556500000000   -0.16462900000000
C        -2.96926100000000   -0.66668500000000    0.79498000000000
C        -3.00664200000000    0.63503400000000    1.00994100000000
C        -2.75221900000000   -1.67871700000000    1.85461900000000
C        -1.93323800000000   -2.92250500000000    1.29354400000000
C        -2.80195500000000   -2.24534000000000   -1.20536700000000
C        -1.97062700000000   -3.23085500000000   -0.25113300000000
C        -1.76152900000000   -1.78506800000000   -2.18206900000000
C        -2.51413500000000    0.52232500000000   -2.26292600000000
C        -1.78287600000000   -0.59644600000000   -2.78612500000000
C        -1.81383300000000    1.66509600000000   -2.50392200000000
C        -2.73749300000000    2.77292300000000   -0.43224400000000
C        -1.98933300000000    2.97846100000000   -1.82774700000000
C        -1.60768700000000    2.84111000000000    0.55114000000000
C        -2.65303800000000    1.32581400000000    2.29230200000000
C        -1.59387000000000    2.26666100000000    1.80349800000000
C        -1.86793500000000   -1.11461900000000    3.03870200000000
C        -1.92717800000000    0.42434600000000    3.38618500000000
C        -0.53591300000000   -2.53636700000000    1.65851300000000
C        -0.50191200000000   -1.52761300000000    2.60341200000000
C         0.61779000000000   -2.93289100000000    1.03964700000000
C        -0.56947500000000   -3.21983700000000   -0.90676100000000
C        -0.55866000000000   -2.55165400000000   -2.06378500000000
C         0.66070700000000   -3.74000900000000   -0.22390300000000
C         0.59879500000000   -2.41219300000000   -2.98526700000000
C        -0.69419700000000   -0.11249900000000   -3.70651400000000
C        -0.60039800000000    1.33176400000000   -3.19722200000000
C         0.63404300000000   -0.96068800000000   -3.67955800000000
C         0.55085900000000    1.96284100000000   -2.90994000000000
C        -0.58945100000000    3.70275400000000   -1.43973700000000
C        -0.43564000000000    3.33311800000000   -0.00198800000000
C         0.70970700000000    3.30531200000000   -2.23333400000000
C         0.74863400000000    3.22165300000000    0.68454300000000
C        -0.40983300000000    2.11725600000000    2.48590300000000
C        -0.48321400000000    1.16308000000000    3.63573900000000
C         0.75381200000000    2.59218700000000    1.92350400000000
C         0.68820700000000   -0.95003200000000    2.92555100000000
C         0.85700600000000    0.32241100000000    3.67736200000000
C         1.81602800000000   -2.30622800000000    1.32765100000000
C         1.85856800000000   -1.32010300000000    2.26837400000000
C         2.06798300000000   -3.35482000000000   -0.86542100000000
C         1.99493700000000   -2.51448400000000   -2.19330900000000
C         2.90399400000000   -2.63195000000000    0.37539500000000
C         1.62201200000000   -0.24599600000000   -2.82466300000000
C         1.67349700000000    1.12039100000000   -2.64889400000000
C         2.29863500000000   -1.07516600000000   -1.96161700000000
C         2.11859900000000    3.12096500000000   -1.39618100000000
C         2.13626900000000    3.40270600000000    0.14139200000000
C         2.42895100000000    1.67620400000000   -1.62082200000000
C         2.02378800000000    1.96034000000000    2.13459200000000
C         2.05914100000000    0.84179700000000    2.84490800000000
C         2.97028200000000   -0.33517300000000    2.53034000000000
C         3.03896100000000    2.43683000000000    1.13248700000000
C         3.71759300000000   -1.30397800000000    0.11501600000000
C         3.03902500000000   -0.53020200000000   -0.94743800000000
C         3.10011500000000    0.84026900000000   -0.77058700000000
C         3.92234200000000   -0.18236000000000    1.29255300000000
C         3.80161100000000    1.22040200000000    0.48537000000000
O        -4.89056200000000   -1.49340800000000   -0.30269500000000
H        -5.44472900000000   -0.92620900000000   -0.88215700000000
O        -3.98627400000000   -2.08647200000000    2.38525800000000
H        -4.64098600000000   -2.09975900000000    1.67249400000000
O        -3.80031400000000    1.94907000000000    2.80301800000000
H        -3.86666100000000    1.70761000000000    3.74180100000000
O        -4.87163200000000    0.41017900000000   -1.96277300000000
H        -5.37691400000000    1.12610400000000   -1.53611400000000
O        -2.66532800000000    0.56708000000000    4.56957100000000
H        -2.77493400000000   -0.34000600000000    4.92822800000000
O        -2.22557100000000   -1.80506700000000    4.22087300000000
H        -2.61706900000000   -2.65191300000000    3.96099900000000
O        -4.89278600000000    1.76743900000000    0.11592900000000
H        -4.87851600000000    2.41769600000000    0.83563800000000
O        -2.32956900000000   -4.04283400000000    2.04345600000000
H        -2.71090600000000   -4.68959200000000    1.42662000000000
O        -2.49489100000000   -4.53304700000000   -0.38256600000000
H        -3.03071400000000   -4.52746700000000   -1.20080700000000
O        -3.73295900000000   -3.02221700000000   -1.92147100000000
H        -4.60400300000000   -2.85914600000000   -1.50996300000000
O        -3.61191500000000    3.84684800000000   -0.23807900000000
H        -3.88270900000000    4.15359600000000   -1.12292900000000
O        -2.73654200000000    3.84152500000000   -2.63167700000000
H        -2.32917000000000    4.72687800000000   -2.50558700000000
O        -0.80807200000000    5.07916800000000   -1.59139700000000
H        -0.19939200000000    5.37043100000000   -2.30156400000000
O         0.91637000000000    4.30782100000000   -3.19335900000000
H         1.88841000000000    4.43310100000000   -3.24123100000000
O         3.07114000000000    3.93903700000000   -2.01719400000000
H         3.24150800000000    4.67061000000000   -1.38820300000000
O         2.59228100000000    4.72004300000000    0.30467100000000
H         3.19526400000000    4.70390400000000    1.07724900000000
O         3.97419100000000    3.25723100000000    1.77118700000000
H         4.83291700000000    3.05625800000000    1.33998000000000
O         5.10358300000000    1.68047100000000    0.20907200000000
H         5.71895100000000    1.00334100000000    0.54541400000000
O         5.24136900000000   -0.26015200000000    1.72818500000000
H         5.23970700000000   -0.64054900000000    2.62178400000000
O         3.75711500000000   -0.71590100000000    3.63838900000000
H         3.17478300000000   -0.70987000000000    4.41403200000000
O         0.51548500000000   -3.40397900000000   -3.95414300000000
H         1.10178400000000   -3.11754000000000   -4.67801100000000
O         2.96653400000000   -2.98979700000000   -3.08900400000000
H         2.95334500000000   -3.95848100000000   -3.03784300000000
O         1.12716900000000   -1.12988600000000   -4.97930700000000
H         0.40826200000000   -0.92115600000000   -5.59586800000000
O         2.74519100000000   -4.52204700000000   -1.20463700000000
H         2.57942700000000   -5.17313500000000   -0.50794700000000
O        -1.14879500000000   -0.13359000000000   -5.04906200000000
H        -1.99931000000000    0.31841100000000   -5.08883600000000
O         1.25197900000000    0.09370700000000    5.00435900000000
H         0.87382500000000    0.82548200000000    5.52605400000000
O        -0.54821700000000    1.84973400000000    4.86013800000000
H        -1.43019300000000    1.67259500000000    5.23934900000000
O         0.64164100000000   -5.13207500000000   -0.02100600000000
H        -0.26488700000000   -5.39533700000000    0.18009800000000
O         3.76547900000000   -3.58996400000000    0.91183200000000
H         4.66689100000000   -3.35587200000000    0.62646300000000
O         5.02108100000000   -1.67861200000000   -0.28307600000000
H         4.98666600000000   -1.93817000000000   -1.21402700000000
