124
 energy: -275.123270863589 gnorm: 0.000276455234 xtb: 6.4.1 (a3dbbd7)
C         1.23273300000000   -3.00041500000000    1.86731300000000
C        -0.20290300000000   -2.77266400000000    2.49602300000000
C        -0.05867600000000   -1.53415400000000    3.44343800000000
C         1.87714000000000   -1.66041600000000    2.07159100000000
C         1.20580800000000   -0.88087100000000    2.90659600000000
C         3.15532900000000   -1.21047600000000    1.43189000000000
C         3.34431700000000   -1.75834500000000   -0.03066000000000
C         1.30112300000000   -3.40352600000000    0.36042100000000
C         2.08329200000000   -2.40773900000000   -0.49852800000000
C         0.00956300000000   -3.37492800000000   -0.41571400000000
C        -1.22163800000000   -2.51016800000000    1.44549500000000
C        -1.15328400000000   -3.05247300000000    0.11660400000000
C        -2.25492900000000   -1.67411600000000    1.50766600000000
C        -1.30215200000000   -0.53263800000000    3.53414600000000
C        -2.59395400000000   -0.83912700000000    2.67238400000000
C        -0.88840200000000    0.79455500000000    2.97526700000000
C         1.60129200000000    0.51516500000000    3.31009800000000
C         0.38924900000000    1.28986400000000    2.90781100000000
C         3.02502700000000    0.27470500000000    1.23856100000000
C         2.73107400000000    1.15648600000000    2.39508500000000
C         3.72335000000000   -0.49843900000000   -0.89129000000000
C         3.30462900000000    0.66456700000000    0.01104500000000
C         3.10385200000000   -0.40043400000000   -2.34976400000000
C         1.56554500000000   -2.34161600000000   -1.72235100000000
C         0.35132300000000   -3.28357800000000   -1.87061900000000
C         2.13812500000000   -1.56391400000000   -2.86135600000000
C        -0.78714000000000   -2.69120500000000   -2.74660600000000
C        -2.47268100000000   -2.89876700000000   -0.59136800000000
C        -3.26800800000000   -1.90851500000000    0.41131600000000
C        -2.25806900000000   -2.47414300000000   -2.08516100000000
C        -3.87848000000000   -0.59943400000000   -0.16917800000000
C        -3.14235700000000    0.57193300000000    2.20179000000000
C        -1.89526800000000    1.40316200000000    2.24753000000000
C        -3.78078900000000    0.71021200000000    0.75583900000000
C        -1.60040800000000    2.49169400000000    1.46301500000000
C         0.69618000000000    2.35220700000000    2.07567400000000
C         2.17141300000000    2.56485700000000    1.94091500000000
C        -0.30214200000000    2.95230700000000    1.36072200000000
C         3.24073100000000    2.08221400000000   -0.48017500000000
C         2.54336600000000    3.12570600000000    0.50091300000000
C         2.20800800000000    0.80144000000000   -2.40723200000000
C         2.26477400000000    1.91984500000000   -1.60629300000000
C         0.96574400000000   -0.85178500000000   -3.63927800000000
C        -0.40768800000000   -1.28940900000000   -3.18884800000000
C         1.07449000000000    0.57307700000000   -3.16076700000000
C        -2.44133700000000   -0.99211800000000   -2.21906000000000
C        -3.10658800000000   -0.18593600000000   -1.39150000000000
C        -1.42149500000000   -0.42232800000000   -3.04635600000000
C        -3.02745100000000    1.70311400000000   -0.14202400000000
C        -2.48746000000000    3.00194000000000    0.36196600000000
C        -2.82096800000000    1.22268400000000   -1.36579900000000
C        -0.11283100000000    3.96099800000000    0.29142300000000
C         1.29969400000000    3.74525100000000   -0.37528900000000
C         1.17757400000000    2.76279700000000   -1.48719300000000
C        -1.48713700000000    3.78835300000000   -0.60283900000000
C         0.00964600000000    1.43867000000000   -3.07090300000000
C        -1.38412000000000    1.04054300000000   -3.43087700000000
C        -2.26752600000000    1.99147700000000   -2.51325600000000
C         0.04215900000000    2.52041500000000   -2.21058700000000
C        -1.29680800000000    3.16682400000000   -2.04083800000000
O         1.91138700000000   -3.97157000000000    2.62184900000000
H         1.21774700000000   -4.53092500000000    3.02162600000000
O         4.27774600000000   -1.48664400000000    2.23409000000000
H         4.64993700000000   -2.32268300000000    1.90247200000000
O         1.92610500000000    0.57962300000000    4.66995100000000
H         2.85154800000000    0.86933900000000    4.73436700000000
O        -0.58207800000000   -3.91475600000000    3.21771300000000
H        -0.46875100000000   -3.69529900000000    4.15966400000000
O         4.37337200000000   -2.70931700000000   -0.04107800000000
H         5.15058900000000   -2.25797100000000   -0.42181600000000
O         0.18412700000000   -2.04852900000000    4.73089100000000
H         0.33499500000000   -1.29416000000000    5.31993300000000
O        -1.67132500000000   -0.39538900000000    4.87798200000000
H        -2.32119400000000   -1.08562300000000    5.07894100000000
O         5.12283000000000   -0.50778400000000   -0.99257700000000
H         5.34779000000000   -0.01315900000000   -1.80133700000000
O         1.86095400000000   -4.68843900000000    0.21207600000000
H         2.43610400000000   -4.83579800000000    0.98307400000000
O         3.90395800000000    1.33783900000000    3.16443300000000
H         4.45111100000000    0.54482300000000    3.04680000000000
O         4.51541100000000    2.50379300000000   -0.87723000000000
H         4.69050000000000    3.35941600000000   -0.45639400000000
O         4.15672200000000   -0.27941700000000   -3.26570500000000
H         4.22618700000000   -1.14469200000000   -3.71592900000000
O         2.86148800000000   -2.41546500000000   -3.70770900000000
H         2.46835500000000   -2.33484700000000   -4.59395000000000
O        -3.55784800000000   -1.47872400000000    3.48037300000000
H        -4.09034100000000   -2.04659300000000    2.88974100000000
O         3.45996400000000    4.16951400000000    0.68749900000000
H         3.33869500000000    4.46078100000000    1.61910700000000
O         2.59737800000000    3.52764200000000    2.88665300000000
H         3.32322800000000    3.13353000000000    3.39725300000000
O        -5.21111700000000   -0.86896300000000   -0.48480500000000
H        -5.72508700000000   -0.07107700000000   -0.27461300000000
O        -4.30536900000000   -2.62519100000000    1.04464900000000
H        -4.30877900000000   -3.51194700000000    0.62954100000000
O        -3.19563700000000   -3.17959500000000   -2.85185900000000
H        -2.71883200000000   -3.48726800000000   -3.64943600000000
O        -3.13424900000000   -4.13357700000000   -0.57120200000000
H        -3.56682400000000   -4.21124200000000   -1.44785500000000
O         0.74661900000000   -4.51641400000000   -2.42356300000000
H         1.33520300000000   -4.94029300000000   -1.77921300000000
O        -0.96220700000000   -3.48736400000000   -3.89261300000000
H        -0.40262500000000   -4.27615600000000   -3.78296600000000
O        -1.99324200000000    5.07365500000000   -0.81246400000000
H        -2.55478900000000    5.29471000000000   -0.05264900000000
O        -0.14629800000000    5.23644200000000    0.85517200000000
H         0.28358100000000    5.83098900000000    0.21565900000000
O         1.69152200000000    5.00150500000000   -0.87054900000000
H         2.59314900000000    5.17374100000000   -0.54273700000000
O        -1.44412600000000    4.17984900000000   -3.01089000000000
H        -1.60794700000000    5.01235600000000   -2.53491800000000
O        -3.31914300000000    2.51905100000000   -3.26571500000000
H        -3.00028800000000    3.39734400000000   -3.56548900000000
O        -1.71104700000000    1.19528100000000   -4.78200200000000
H        -2.60915000000000    1.57466900000000   -4.80015500000000
O         1.17787300000000   -1.03901900000000   -5.01838800000000
H         0.47935200000000   -0.57087900000000   -5.49235600000000
O        -5.07739200000000    1.24501300000000    0.90117100000000
H        -5.27361900000000    1.24375400000000    1.86117300000000
O        -4.09853900000000    0.99412300000000    3.14444900000000
H        -4.24720900000000    0.24396200000000    3.75123800000000
O        -3.49310800000000    3.89209600000000    0.78470000000000
H        -4.28363700000000    3.37674000000000    0.99385200000000
