124
 energy: -275.121779328014 gnorm: 0.000239842540 xtb: 6.4.1 (a3dbbd7)
C        -1.51772700000000   -3.01134100000000   -1.63299100000000
C         0.01024600000000   -3.13796200000000   -2.03089300000000
C         0.23508400000000   -2.07269400000000   -3.15672700000000
C        -1.86648500000000   -1.63649200000000   -2.13278100000000
C        -0.95167900000000   -1.13586100000000   -2.95160000000000
C        -3.12016000000000   -0.87943800000000   -1.79254800000000
C        -3.63562100000000   -1.13936500000000   -0.32678400000000
C        -1.87936300000000   -3.13417900000000   -0.12302800000000
C        -2.59214400000000   -1.89818300000000    0.41716300000000
C        -0.73070500000000   -3.16282000000000    0.85444600000000
C         0.92295600000000   -2.88864500000000   -0.88122600000000
C         0.53381300000000   -3.13683900000000    0.47904800000000
C         2.13705800000000   -2.33214900000000   -0.89916200000000
C         1.63897500000000   -1.31375500000000   -3.15484500000000
C         2.76347500000000   -1.70441800000000   -2.08526500000000
C         1.39827100000000    0.12506800000000   -2.82961200000000
C        -1.01272000000000    0.22566900000000   -3.59408900000000
C         0.25744700000000    0.84090600000000   -3.09263100000000
C        -2.72967800000000    0.57181300000000   -1.76987800000000
C        -2.11333600000000    1.19158000000000   -2.97006500000000
C        -3.87747600000000    0.29064900000000    0.28225800000000
C        -3.08829400000000    1.18586400000000   -0.65839500000000
C        -3.51943500000000    0.53182300000000    1.81393200000000
C        -2.23479000000000   -1.67769400000000    1.67555500000000
C        -1.26390900000000   -2.74485200000000    2.19432700000000
C        -2.79705700000000   -0.64526400000000    2.57808400000000
C        -0.18619900000000   -2.30202100000000    3.23327000000000
C         1.71591900000000   -3.09291000000000    1.39356200000000
C         2.86770200000000   -2.47705100000000    0.42001500000000
C         1.35949500000000   -2.35236300000000    2.72782100000000
C         3.57101200000000   -1.16576500000000    0.87283600000000
C         3.46034900000000   -0.31543700000000   -1.69683000000000
C         2.36957700000000    0.65816600000000   -2.00314900000000
C         4.02003900000000   -0.10481300000000   -0.25055500000000
C         2.19066900000000    1.90357100000000   -1.46263200000000
C         0.05471800000000    2.07815100000000   -2.51126200000000
C        -1.36832200000000    2.53873100000000   -2.61806200000000
C         1.03817800000000    2.61870000000000   -1.72427200000000
C        -2.85547100000000    2.63281400000000   -0.35957800000000
C        -1.75366500000000    3.29607900000000   -1.26824900000000
C        -2.49397700000000    1.64037700000000    1.92075400000000
C        -2.20529800000000    2.57693200000000    1.00666800000000
C        -1.56390400000000   -0.01470000000000    3.18984100000000
C        -0.39777700000000   -0.79689000000000    3.76182000000000
C        -1.48632700000000    1.29294200000000    2.87758000000000
C         1.69457700000000   -0.91338800000000    2.56946300000000
C         2.64015300000000   -0.38848200000000    1.72953000000000
C         0.79757800000000   -0.07780400000000    3.19385400000000
C         3.66952700000000    1.35216000000000    0.44775700000000
C         3.03390400000000    2.51503400000000   -0.40195800000000
C         2.70092100000000    0.96908800000000    1.49972600000000
C         0.82656700000000    3.76678000000000   -0.78149600000000
C        -0.56495100000000    3.45762900000000   -0.30594300000000
C        -0.90442500000000    3.19216100000000    0.95578900000000
C         1.99281200000000    3.58862600000000    0.29024100000000
C        -0.30353800000000    2.18622600000000    3.18224600000000
C         0.85293300000000    1.27141100000000    2.95135100000000
C         1.79109200000000    1.80298100000000    2.08932200000000
C        -0.02711900000000    3.35185300000000    2.15125000000000
C         1.52009300000000    3.23371600000000    1.76311100000000
O        -2.25234300000000   -3.97960100000000   -2.33800000000000
H        -1.59910600000000   -4.65303300000000   -2.61657000000000
O        -4.13875100000000   -1.08383400000000   -2.73953500000000
H        -4.64542100000000   -1.85791700000000   -2.44499800000000
O        -1.13922300000000    0.12764400000000   -4.98024300000000
H        -1.80418600000000    0.77792500000000   -5.25961700000000
O         0.24584800000000   -4.43141400000000   -2.52052500000000
H         0.38258100000000   -4.33190500000000   -3.48315800000000
O        -4.81345500000000   -1.89610200000000   -0.35597600000000
H        -5.54536400000000   -1.26164900000000   -0.26220300000000
O         0.09805600000000   -2.75726000000000   -4.37430700000000
H         0.52297100000000   -2.20511400000000   -5.05396600000000
O         2.19545100000000   -1.44785400000000   -4.43304600000000
H         2.91118600000000   -2.10749600000000   -4.35176900000000
O        -5.24772500000000    0.54541100000000    0.09487400000000
H        -5.42444400000000    1.44671400000000    0.39983200000000
O        -2.67417500000000   -4.27554800000000    0.11529000000000
H        -3.06476500000000   -4.51866300000000   -0.74526600000000
O        -3.11292000000000    1.45519900000000   -3.92878500000000
H        -3.75917300000000    0.73344000000000   -3.87638900000000
O        -4.07605300000000    3.31338100000000   -0.40437400000000
H        -3.88207200000000    4.21970900000000   -0.69083600000000
O        -4.68881800000000    0.89147200000000    2.48977900000000
H        -4.93004100000000    0.15936700000000    3.07758900000000
O        -3.69171400000000   -1.21554800000000    3.50838800000000
H        -3.43215600000000   -2.13229100000000    3.66910100000000
O         3.69830500000000   -2.54867300000000   -2.68309700000000
H         4.46729400000000   -1.97708300000000   -2.89374200000000
O        -2.23042700000000    4.57646900000000   -1.59371600000000
H        -1.59564000000000    4.96796800000000   -2.21388800000000
O        -1.50177800000000    3.43287800000000   -3.68786400000000
H        -2.39589500000000    3.32982800000000   -4.04774700000000
O         4.70789200000000   -1.49695300000000    1.62618000000000
H         4.99514700000000   -2.37494600000000    1.31346000000000
O         3.88520700000000   -3.43343700000000    0.27298600000000
H         3.48254700000000   -4.30331400000000    0.44783300000000
O         2.14077200000000   -2.94972400000000    3.73509300000000
H         1.54140900000000   -3.21089600000000    4.45608300000000
O         2.07820200000000   -4.41248100000000    1.70111000000000
H         2.47404100000000   -4.37244000000000    2.59537900000000
O        -2.05503500000000   -3.76435300000000    2.80470100000000
H        -2.48274000000000   -4.25174300000000    2.07870700000000
O        -0.26861400000000   -3.14428200000000    4.35560500000000
H        -0.93414500000000   -3.82868300000000    4.15279800000000
O         4.50708700000000   -0.16827700000000   -2.63101900000000
H         5.29688900000000    0.12065100000000   -2.14627600000000
O         4.11126500000000    3.23653500000000   -0.94416700000000
H         3.93310500000000    4.18204600000000   -0.78842800000000
O         2.66487500000000    4.81526200000000    0.35267300000000
H         2.91529600000000    4.92605300000000    1.29846000000000
O         5.40902800000000   -0.17337000000000   -0.37012100000000
H         5.75802200000000   -0.23773900000000    0.53680400000000
O         2.22948600000000    4.07635700000000    2.64292600000000
H         1.56062500000000    4.68798700000000    3.01830300000000
O         4.84810200000000    1.82040200000000    1.03145000000000
H         5.25410700000000    2.41724600000000    0.37665500000000
O        -0.23986300000000    4.60432200000000    2.75023000000000
H        -0.58085900000000    4.44063200000000    3.64537500000000
O         0.87382300000000    5.02105100000000   -1.40587100000000
H         1.52051500000000    5.56356900000000   -0.92819900000000
O        -0.39475000000000    2.75174600000000    4.46900100000000
H        -0.46364400000000    2.03036900000000    5.10698000000000
O        -0.44087200000000   -0.75359800000000    5.16564300000000
H        -0.43267100000000   -1.66870800000000    5.49077000000000
