128
 energy: -284.303854031963 gnorm: 0.000264897075 xtb: 6.4.1 (a3dbbd7)
C         2.39962800000000   -1.81662900000000   -1.94334000000000
C         2.56261800000000   -0.33101600000000   -2.44801200000000
C         1.33340300000000   -0.08641100000000   -3.37746800000000
C         0.91478400000000   -2.01812300000000   -2.07605400000000
C         0.36184000000000   -1.15420400000000   -2.90605800000000
C         0.29567400000000   -3.31059300000000   -1.71766000000000
C         0.72005500000000   -3.69264100000000   -0.24032500000000
C         3.02087200000000   -2.18143600000000   -0.55571000000000
C         2.04838400000000   -3.05309000000000    0.36290200000000
C         3.46210600000000   -0.97806400000000    0.40795600000000
C         2.58190400000000    0.64040000000000   -1.32040000000000
C         3.57595500000000    0.42139100000000   -0.22987700000000
C         2.07221000000000    1.86213200000000   -1.31761800000000
C         0.68556000000000    1.36321300000000   -3.36954400000000
C         1.31510300000000    2.48088200000000   -2.43510000000000
C        -0.69027000000000    1.24945800000000   -2.80060900000000
C        -1.06065300000000   -1.17799400000000   -3.38500500000000
C        -1.50436300000000    0.14721300000000   -2.85174700000000
C        -1.28443700000000   -3.22349500000000   -1.69738200000000
C        -2.02102700000000   -2.22891900000000   -2.67854200000000
C        -0.44529700000000   -3.14245200000000    0.52858100000000
C        -1.53021000000000   -2.84791300000000   -0.27562600000000
C        -0.43221300000000   -2.70887300000000    1.82986200000000
C         1.75995200000000   -2.13330200000000    1.53471100000000
C         2.48410200000000   -1.03368500000000    1.53286900000000
C         0.82729400000000   -2.56393700000000    2.62527900000000
C         2.64993300000000   -0.12464000000000    2.69218800000000
C         3.39321300000000    1.65728300000000    0.75321800000000
C         2.57178700000000    2.71333000000000   -0.18139700000000
C         2.75624400000000    1.37054900000000    2.17390000000000
C         1.41363900000000    3.55173200000000    0.44985700000000
C         0.07774900000000    3.32795900000000   -1.90551600000000
C        -1.00702000000000    2.29935000000000   -1.95826100000000
C         0.17829900000000    4.00164400000000   -0.49438700000000
C        -2.13309000000000    2.22408100000000   -1.18576200000000
C        -2.61021500000000    0.04850600000000   -2.03324600000000
C        -3.21638800000000   -1.31142900000000   -2.01592600000000
C        -2.92185400000000    1.08381600000000   -1.19833600000000
C        -2.58878000000000   -2.13975900000000    0.22862900000000
C        -3.72573000000000   -1.60135200000000   -0.55634700000000
C        -1.47042300000000   -1.95114100000000    2.32086500000000
C        -2.56563700000000   -1.69288400000000    1.53335800000000
C         0.49250300000000   -1.47834900000000    3.73084800000000
C         1.38107200000000   -0.15745700000000    3.64383600000000
C        -1.14389600000000   -1.30142900000000    3.62197700000000
C         1.33626300000000    1.78451700000000    2.24720400000000
C         0.74506600000000    2.75864800000000    1.50420000000000
C         0.58209200000000    0.97003900000000    3.08840800000000
C        -1.15142400000000    3.80672200000000    0.46701700000000
C        -2.49428700000000    3.17860100000000   -0.10908200000000
C        -0.62676100000000    2.91998300000000    1.53016900000000
C        -3.98713600000000    1.09528500000000   -0.15429600000000
C        -4.26752200000000   -0.35892800000000    0.39890600000000
C        -3.66464300000000   -0.70640600000000    1.83316000000000
C        -3.43780400000000    2.23348500000000    0.82674800000000
C        -1.77912200000000    0.12498700000000    3.57612800000000
C        -0.76411800000000    1.12925600000000    3.12805600000000
C        -1.37489900000000    2.07880700000000    2.30192700000000
C        -2.86968400000000    0.38267600000000    2.47936800000000
C        -2.68297000000000    1.59644500000000    1.93506900000000
O         2.93892400000000   -2.68142900000000   -2.92577600000000
H         3.87478900000000   -2.82341300000000   -2.71166800000000
O         0.67440900000000   -4.30587900000000   -2.62944300000000
H         1.55220900000000   -4.07545900000000   -2.97782400000000
O        -1.08682200000000   -1.29393800000000   -4.78029600000000
H        -1.66306400000000   -2.04489100000000   -4.99748000000000
O         3.77054500000000   -0.19047000000000   -3.15396300000000
H         3.56900500000000   -0.41948900000000   -4.07786000000000
O        -2.60915800000000   -2.98825600000000   -3.69665900000000
H        -2.57928600000000   -3.91857700000000   -3.37845700000000
O        -1.79750100000000   -4.51327200000000   -1.96449700000000
H        -1.05513500000000   -5.13587200000000   -1.93601700000000
O         1.75828600000000   -0.39515500000000   -4.67877700000000
H         0.99571300000000   -0.26893500000000   -5.26416700000000
O         0.76614600000000   -5.08826000000000   -0.15556400000000
H         1.68303300000000   -5.34373400000000    0.04505800000000
O         0.65439000000000    1.83847400000000   -4.68195700000000
H         1.44638400000000    2.39349400000000   -4.79502000000000
O         2.16388200000000    3.29275500000000   -3.18639200000000
H         1.62992300000000    4.08096700000000   -3.41658100000000
O         4.72287900000000   -1.28773100000000    0.96942200000000
H         5.37663700000000   -0.80461000000000    0.42263700000000
O         4.87931100000000    0.51683400000000   -0.77681100000000
H         4.82404300000000    0.33237300000000   -1.73037400000000
O         1.32848900000000   -3.74599400000000    3.19573600000000
H         1.09518200000000   -3.71844800000000    4.13978100000000
O         0.73839000000000   -2.07433400000000    4.96613100000000
H         1.16456400000000   -1.38992300000000    5.52189700000000
O         1.81589900000000    0.14597000000000    4.95208000000000
H         2.78800600000000    0.11420400000000    4.94049800000000
O         3.76955700000000   -0.49725400000000    3.44609000000000
H         4.45789900000000   -0.79667100000000    2.82557200000000
O        -0.14226400000000    4.31620200000000   -2.88380300000000
H        -0.20011800000000    5.17097600000000   -2.42114400000000
O         0.31601500000000    5.37114400000000   -0.72855700000000
H         0.02102300000000    5.81729800000000    0.08783900000000
O         4.17551100000000   -2.91434100000000   -0.85355600000000
H         4.43846100000000   -3.38569900000000   -0.04855500000000
O         2.83550200000000   -4.11485700000000    0.87570600000000
H         2.50597300000000   -4.30471100000000    1.77325200000000
O        -1.45932700000000    5.07024100000000    0.98872000000000
H        -2.22968400000000    5.38284000000000    0.47109900000000
O        -3.28076300000000    4.25198300000000   -0.55190000000000
H        -4.08732200000000    4.24414300000000    0.00139100000000
O        -4.50776200000000    2.99254300000000    1.30227800000000
H        -5.28005100000000    2.71954800000000    0.76088600000000
O        -4.75868600000000   -2.53773400000000   -0.61647600000000
H        -5.23828100000000   -2.35719100000000   -1.44584900000000
O        -5.65749800000000   -0.46106700000000    0.45935800000000
H        -5.86926800000000   -1.25492300000000    0.97303400000000
O        -4.69459500000000   -1.25171700000000    2.61844700000000
H        -4.29418300000000   -1.63324500000000    3.41024300000000
O        -4.34375700000000   -1.39424500000000   -2.85004400000000
H        -4.10663600000000   -1.98173700000000   -3.59189900000000
O        -5.18176400000000    1.62503000000000   -0.68552500000000
H        -5.84350300000000    0.91515800000000   -0.69391100000000
O         1.96781600000000    4.69498800000000    1.04303900000000
H         2.62505600000000    5.03379800000000    0.40983500000000
O         3.48573400000000    3.65717700000000   -0.67690000000000
H         4.37704300000000    3.28213700000000   -0.58806900000000
O         4.66643600000000    2.19045800000000    0.95782800000000
H         4.78622500000000    2.30871300000000    1.91967000000000
O         3.50719100000000    2.08481900000000    3.14575200000000
H         3.13649000000000    2.97398700000000    3.22703400000000
O        -1.73440500000000   -2.04914800000000    4.64057200000000
H        -1.66553600000000   -1.55161300000000    5.46723800000000
O        -2.29151000000000    0.38400400000000    4.86383300000000
H        -2.63616500000000    1.28414000000000    4.88176500000000
