128
 energy: -284.286140512810 gnorm: 0.000469844882 xtb: 6.4.1 (a3dbbd7)
C         3.28168400000000    1.47574000000000   -0.47951900000000
C         3.59085700000000   -0.01819800000000   -0.10386900000000
C         3.31340000000000   -0.08901800000000    1.43348500000000
C         2.28928900000000    1.86254200000000    0.58682200000000
C         2.33869600000000    1.04498400000000    1.62706200000000
C         1.74856000000000    3.24522000000000    0.62047000000000
C         1.07439500000000    3.57922300000000   -0.75453900000000
C         2.85460000000000    1.76533500000000   -1.94760700000000
C         1.62464800000000    2.81146200000000   -2.03831300000000
C         2.39498600000000    0.52469200000000   -2.87811900000000
C         2.71631000000000   -0.95376700000000   -0.85484200000000
C         2.69774400000000   -0.90893700000000   -2.34947800000000
C         2.18888900000000   -2.05645100000000   -0.35382400000000
C         2.76165800000000   -1.42894200000000    2.03906100000000
C         2.41770000000000   -2.57106000000000    1.01846300000000
C         1.42552600000000   -1.18095900000000    2.69756200000000
C         1.79695600000000    1.33368100000000    2.98418800000000
C         1.13468300000000    0.02689300000000    3.55645800000000
C         0.61140500000000    3.39584400000000    1.69082900000000
C         0.65760700000000    2.43012700000000    2.94450800000000
C        -0.37755900000000    3.28100100000000   -0.44304100000000
C        -0.63490100000000    3.20688300000000    0.84504200000000
C        -1.40521100000000    3.26509600000000   -1.52222400000000
C         0.50332400000000    1.96026700000000   -2.55749700000000
C         0.93019500000000    0.72076500000000   -2.99337700000000
C        -0.84459600000000    2.20177100000000   -2.42126100000000
C         0.03579700000000   -0.27269800000000   -3.26865100000000
C         1.72805600000000   -2.13104500000000   -2.76816000000000
C         1.68361200000000   -2.99361200000000   -1.40820900000000
C         0.33923700000000   -1.74721800000000   -3.40212200000000
C         0.34904700000000   -3.65414400000000   -0.98407200000000
C         1.13079700000000   -3.25276200000000    1.60536600000000
C         0.55092400000000   -2.15727800000000    2.47123000000000
C         0.05375800000000   -3.74876600000000    0.58503000000000
C        -0.84969900000000   -2.17106000000000    3.04968700000000
C        -0.33024700000000    0.28335000000000    3.35386300000000
C        -0.58850900000000    1.57836400000000    2.94804400000000
C        -1.23981700000000   -0.72253700000000    3.11860700000000
C        -1.99649800000000    3.05417200000000    1.44122500000000
C        -1.78918200000000    1.85526100000000    2.33017700000000
C        -2.86274600000000    2.74287600000000   -1.12262000000000
C        -3.17815700000000    2.62676000000000    0.45321000000000
C        -1.75547000000000    1.19702400000000   -2.67849100000000
C        -1.32565200000000   -0.03847400000000   -3.09296200000000
C        -3.07845800000000    1.41704200000000   -1.99784300000000
C        -0.88459000000000   -2.19968900000000   -2.62094000000000
C        -0.82789800000000   -2.86549400000000   -1.48429900000000
C        -2.08562400000000   -1.34128000000000   -2.99665400000000
C        -1.25247600000000   -2.97767100000000    0.72677900000000
C        -1.90744500000000   -2.77031300000000    2.03862800000000
C        -1.80892900000000   -2.69799700000000   -0.44988500000000
C        -2.42929200000000   -0.45534900000000    2.46738400000000
C        -2.69857600000000    0.84562700000000    2.08742100000000
C        -3.64910900000000    1.19628700000000    0.97678300000000
C        -3.08441500000000   -1.70985600000000    1.94399800000000
C        -3.23094100000000    0.13399500000000   -1.24177700000000
C        -3.23698000000000   -1.21993900000000   -1.93379900000000
C        -3.19020400000000   -2.21181400000000   -0.70752300000000
C        -3.45051100000000    0.04674500000000    0.05201300000000
C        -3.71280900000000   -1.37138400000000    0.52254000000000
O         4.43352100000000    2.24798300000000   -0.17675800000000
H         4.85532600000000    2.45337400000000   -1.03396300000000
O         2.77012700000000    4.15190500000000    0.94064000000000
H         3.61826000000000    3.76900200000000    0.65358900000000
O         2.88799000000000    1.74683100000000    3.75703200000000
H         2.54964400000000    1.91938800000000    4.64916800000000
O         4.92215200000000   -0.34488500000000   -0.40685500000000
H         5.47139700000000    0.10946800000000    0.25359800000000
O         0.77078400000000    3.17298000000000    4.12544200000000
H         0.69321000000000    4.11355600000000    3.88166900000000
O         0.61190400000000    4.72647700000000    2.16698400000000
H         1.45915000000000    5.12060000000000    1.89443700000000
O         0.25171400000000   -2.13961200000000   -4.74707300000000
H         1.06017700000000   -2.63484200000000   -4.95765500000000
O         2.37149800000000   -2.90123400000000   -3.73730900000000
H         3.32910700000000   -2.78590900000000   -3.61041900000000
O         4.52622400000000    0.23696800000000    2.07943100000000
H         4.30596600000000    0.78579200000000    2.85449800000000
O         0.34485000000000   -4.94151800000000   -1.55055300000000
H        -0.18669500000000   -5.50819500000000   -0.96626800000000
O         2.66094900000000   -4.00940100000000   -1.52027300000000
H         2.21536600000000   -4.76284800000000   -1.94787100000000
O         3.97362200000000    2.33448200000000   -2.56677800000000
H         3.62264200000000    2.91194700000000   -3.27243400000000
O         2.97532800000000    0.68135900000000   -4.13891000000000
H         3.79894400000000    0.16583800000000   -4.14935700000000
O         3.63927400000000   -1.93470400000000    3.00056800000000
H         4.50932200000000   -1.52693300000000    2.85496500000000
O        -0.27092900000000   -5.09353300000000    0.88937100000000
H         0.40558100000000   -5.39438400000000    1.53188700000000
O         1.53274200000000   -4.35137400000000    2.39022800000000
H         2.50708400000000   -4.32229500000000    2.43233600000000
O        -4.16666600000000    1.54382100000000   -2.86998800000000
H        -4.40355900000000    2.48679300000000   -2.89711700000000
O        -3.74929400000000    3.69092300000000   -1.65930500000000
H        -4.28396500000000    4.01315100000000   -0.89691000000000
O        -4.23322800000000    3.51927900000000    0.68034700000000
H        -4.90381800000000    3.05166600000000    1.20965700000000
O        -5.00217700000000    1.27466600000000    1.36687700000000
H        -5.41869400000000    0.41858600000000    1.16326200000000
O        -5.11335900000000   -1.47989300000000    0.61552500000000
H        -5.30440700000000   -1.97020700000000    1.43918600000000
O        -3.98168300000000   -3.33775100000000   -0.92330700000000
H        -4.71434300000000   -3.04939800000000   -1.49292500000000
O        -4.48114700000000   -1.43043600000000   -2.53884000000000
H        -4.54041700000000   -0.85521000000000   -3.31324600000000
O        -4.12451700000000   -2.13901600000000    2.78843300000000
H        -3.95447900000000   -3.07143100000000    3.00582200000000
O        -2.40662700000000   -3.99245300000000    2.54872200000000
H        -2.05114200000000   -4.71197300000000    2.00342100000000
O        -2.65362700000000   -1.74965200000000   -4.21140700000000
H        -1.92372400000000   -1.93696400000000   -4.82064100000000
O        -1.44925300000000    4.55937300000000   -2.07219800000000
H        -2.38152600000000    4.73317600000000   -2.29677700000000
O         1.99833300000000    3.76276300000000   -2.99884300000000
H         1.98166200000000    4.63402000000000   -2.55263100000000
O         1.18983800000000    4.96776400000000   -0.98558000000000
H         0.34532900000000    5.26897700000000   -1.36293600000000
O        -2.38551600000000    4.22534100000000    2.10615300000000
H        -1.59107600000000    4.68566100000000    2.40753900000000
O         1.54367700000000   -0.14233600000000    4.88497800000000
H         1.14453800000000   -0.95464800000000    5.22114900000000
O        -0.87284000000000   -2.82127200000000    4.28861500000000
H        -1.38992500000000   -3.63684300000000    4.18084400000000
O         3.99658000000000   -1.25975200000000   -2.81074600000000
H         4.63629200000000   -1.04348200000000   -2.10980200000000
O         3.48187700000000   -3.48708300000000    1.00430600000000
H         3.49475100000000   -3.91937800000000    0.12997700000000
