128
 energy: -284.284291610837 gnorm: 0.000178822236 xtb: 6.4.1 (a3dbbd7)
C        -3.01883800000000   -0.80753700000000    1.92193100000000
C        -2.45589700000000   -2.27185200000000    1.68910700000000
C        -2.67583400000000   -2.51595100000000    0.15294000000000
C        -2.95764600000000   -0.19851400000000    0.54212900000000
C        -2.82352900000000   -1.11879500000000   -0.39932100000000
C        -3.47356700000000    1.17480700000000    0.28576600000000
C        -2.80576100000000    2.21048200000000    1.25020600000000
C        -2.39658200000000    0.06696400000000    3.05843900000000
C        -2.20089200000000    1.61819800000000    2.59755300000000
C        -0.96400000000000   -0.36143900000000    3.59991600000000
C        -1.01561800000000   -2.37101800000000    2.03229200000000
C        -0.45198500000000   -1.80281900000000    3.31195500000000
C        -0.08985300000000   -3.00285500000000    1.29956100000000
C        -1.59286400000000   -3.30463300000000   -0.68147500000000
C        -0.28692200000000   -3.78282000000000    0.05118000000000
C        -1.04507600000000   -2.42881600000000   -1.77414800000000
C        -3.07012300000000   -0.90929700000000   -1.85540100000000
C        -1.93562800000000   -1.63168500000000   -2.67401100000000
C        -3.13391200000000    1.67912100000000   -1.15025800000000
C        -2.98478900000000    0.60326100000000   -2.28010800000000
C        -1.72565000000000    2.82566400000000    0.34485300000000
C        -1.86750300000000    2.47675400000000   -0.92149100000000
C        -0.61430800000000    3.68634600000000    0.88061100000000
C        -0.71672100000000    1.71551200000000    2.46111600000000
C        -0.05975800000000    0.62092400000000    2.96976600000000
C         0.00119600000000    2.66274500000000    1.77920600000000
C         1.28518600000000    0.47396200000000    2.79832400000000
C         1.15752500000000   -1.97848800000000    3.10695500000000
C         1.21200200000000   -2.61377200000000    1.74541200000000
C         2.07987000000000   -0.70834500000000    3.19323300000000
C         2.21028500000000   -2.46611200000000    0.87275100000000
C         0.87813800000000   -3.56243100000000   -1.02275100000000
C         0.26358400000000   -2.55439100000000   -1.95129800000000
C         2.27626700000000   -3.12147900000000   -0.48256400000000
C         1.03040300000000   -2.00617500000000   -3.11105500000000
C        -1.08424800000000   -0.50085600000000   -3.15881200000000
C        -1.59673000000000    0.69498300000000   -2.88337000000000
C         0.29723800000000   -0.74584900000000   -3.71437200000000
C        -1.10583100000000    3.08654000000000   -2.04470000000000
C        -0.85037400000000    1.98672400000000   -3.14936200000000
C         0.56861000000000    4.06724200000000   -0.11771100000000
C         0.33088200000000    3.61636800000000   -1.61812100000000
C         1.34627900000000    2.48133400000000    1.54355800000000
C         1.99355900000000    1.39544400000000    2.05722200000000
C         1.91707200000000    3.45716800000000    0.59026000000000
C         3.33364700000000   -0.56992500000000    2.18411100000000
C         3.09878900000000   -1.34538200000000    0.94132200000000
C         3.40936100000000    1.00229100000000    1.84444700000000
C         3.10717100000000   -2.05515700000000   -1.33797300000000
C         2.47549400000000   -1.51173000000000   -2.68570600000000
C         3.41730100000000   -0.96562400000000   -0.29962200000000
C         1.11477500000000    0.38986400000000   -3.18137300000000
C         0.58613900000000    1.62591100000000   -2.90534200000000
C         1.20216700000000    2.45756800000000   -1.98947800000000
C         2.27218600000000   -0.03149300000000   -2.55698900000000
C         3.03204500000000    2.72962000000000   -0.25109600000000
C         3.91151900000000    1.49511300000000    0.43239100000000
C         3.94989600000000    0.37507800000000   -0.69193600000000
C         2.37350700000000    2.05531300000000   -1.39912300000000
C         2.91413200000000    0.81718600000000   -1.68859800000000
O        -4.40132700000000   -0.94265800000000    2.22192400000000
H        -4.51337400000000   -1.88631400000000    2.47485000000000
O        -4.87455100000000    1.17440700000000    0.39592600000000
H        -5.12730200000000    0.64966200000000    1.16853200000000
O        -4.32565000000000   -1.45659900000000   -2.14845600000000
H        -4.64008400000000   -0.99553500000000   -2.94627400000000
O        -3.23382200000000   -3.15896000000000    2.45358100000000
H        -3.62755800000000   -3.80274200000000    1.84338600000000
O        -3.95815200000000    0.80246800000000   -3.27101700000000
H        -4.42574900000000    1.62864000000000   -3.04394100000000
O        -4.12961300000000    2.60870600000000   -1.55420000000000
H        -4.83151900000000    2.57178500000000   -0.88140400000000
O        -3.91167800000000   -3.18667600000000    0.05275200000000
H        -4.29496000000000   -2.98957800000000   -0.81583200000000
O        -3.77253700000000    3.17424300000000    1.53384600000000
H        -3.41562100000000    3.74183300000000    2.23436500000000
O        -1.84504600000000    4.15785000000000   -2.59910600000000
H        -2.76790200000000    4.06831800000000   -2.31508200000000
O        -1.15058100000000    4.81056600000000    1.50936500000000
H        -0.53290700000000    5.54408400000000    1.36379900000000
O        -2.21942400000000   -4.40083300000000   -1.29660500000000
H        -2.02661200000000   -5.17710600000000   -0.74127400000000
O        -2.65834000000000    2.43334600000000    3.63957400000000
H        -2.96293700000000    1.84107600000000    4.35337300000000
O        -3.24919000000000    0.05297900000000    4.16044100000000
H        -4.13523400000000   -0.19751500000000    3.83446900000000
O        -0.39441200000000   -5.14109600000000    0.35820900000000
H         0.09529800000000   -5.60686300000000   -0.35248700000000
O         1.02188600000000   -4.78134900000000   -1.70690000000000
H         1.91759300000000   -5.10956400000000   -1.48606900000000
O         3.03927500000000   -4.30350000000000   -0.37176900000000
H         3.95804900000000   -4.06535700000000   -0.59450600000000
O         0.66244900000000    5.45363900000000   -0.08936000000000
H         1.10322600000000    5.72810100000000   -0.91278800000000
O         0.65337700000000    4.70801900000000   -2.44997400000000
H        -0.18204500000000    5.11567700000000   -2.73092800000000
O         4.35825100000000   -2.62937400000000   -1.65531900000000
H         4.42288500000000   -2.60959100000000   -2.63633500000000
O         3.35476500000000   -1.82386800000000   -3.73775900000000
H         2.86376000000000   -2.44945000000000   -4.31391100000000
O        -2.43915700000000   -2.41873600000000   -3.71541900000000
H        -2.74002000000000   -3.25684400000000   -3.33578600000000
O         1.18095900000000   -3.00585100000000   -4.08592200000000
H         0.62149100000000   -2.75868000000000   -4.84072200000000
O         5.20335700000000    1.97622100000000    0.64217300000000
H         5.68752700000000    1.89141000000000   -0.19291800000000
O         4.19023900000000    1.61131900000000    2.84435600000000
H         5.05970300000000    1.79049100000000    2.44598800000000
O         4.50449900000000   -0.99551100000000    2.79274300000000
H         4.63975500000000   -0.40636800000000    3.55469300000000
O         5.25703400000000    0.31179400000000   -1.21636400000000
H         5.40987900000000   -0.58319000000000   -1.54537400000000
O        -1.11424200000000    2.46272200000000   -4.43909700000000
H        -1.52704100000000    3.33777300000000   -4.34570800000000
O         0.27977900000000   -0.88770500000000   -5.11357400000000
H        -0.20899400000000   -0.14268400000000   -5.48420800000000
O         2.53332300000000   -0.56946400000000    4.51194300000000
H         2.72485700000000   -1.47317600000000    4.82106800000000
O         1.63190900000000   -2.87851600000000    4.07281800000000
H         0.84950800000000   -3.33942100000000    4.43083300000000
O        -0.84437000000000   -2.63605000000000    4.37064700000000
H        -1.16894900000000   -2.05414500000000    5.08527800000000
O         3.94520200000000    3.67962000000000   -0.70901200000000
H         3.90652800000000    4.43446200000000   -0.09482100000000
O         2.52851900000000    4.54468800000000    1.25447400000000
H         2.94692200000000    4.21221100000000    2.05916500000000
O        -0.98034900000000   -0.18837000000000    5.00587900000000
H        -0.09196100000000    0.06937800000000    5.28850500000000
