132
 energy: -293.451386423951 gnorm: 0.000362108765 xtb: 6.4.1 (a3dbbd7)
C        -3.17809000000000    1.92417800000000    0.02959000000000
C        -3.27167200000000    1.10327800000000   -1.31512500000000
C        -2.32930200000000    1.84747600000000   -2.31160800000000
C        -1.83246700000000    2.58005000000000   -0.11732500000000
C        -1.41698400000000    2.61212800000000   -1.36967100000000
C        -1.32117700000000    3.48288000000000    0.93338200000000
C        -1.36038000000000    2.72155800000000    2.32570000000000
C        -3.43047100000000    1.15478200000000    1.37105000000000
C        -2.37483300000000    1.50667700000000    2.51759000000000
C        -3.41725200000000   -0.44829600000000    1.33102700000000
C        -2.83659000000000   -0.30667000000000   -1.13237600000000
C        -3.50021200000000   -1.10589900000000   -0.06208200000000
C        -2.18901500000000   -1.05662900000000   -2.01062300000000
C        -1.51674300000000    0.96733700000000   -3.35584500000000
C        -1.70154700000000   -0.60778200000000   -3.33911100000000
C        -0.06279900000000    1.09199600000000   -3.03760500000000
C        -0.20314100000000    3.33115700000000   -1.88395300000000
C         0.54917400000000    2.16355300000000   -2.44000100000000
C         0.20110900000000    3.84771700000000    0.69132100000000
C         0.76427400000000    3.93927600000000   -0.78172100000000
C         0.02316800000000    2.14955100000000    2.35232500000000
C         0.86419400000000    2.73724100000000    1.42677200000000
C         0.42229300000000    1.01186500000000    3.00274300000000
C        -1.66056000000000    0.18523200000000    2.75189400000000
C        -2.19232800000000   -0.82436400000000    2.09680500000000
C        -0.51119000000000    0.08621600000000    3.71118100000000
C        -1.88458100000000   -2.25332500000000    2.35069400000000
C        -2.86716500000000   -2.55258500000000   -0.17888400000000
C        -2.21589700000000   -2.52219100000000   -1.67383600000000
C        -1.87947600000000   -2.99856100000000    0.96232700000000
C        -0.81780700000000   -3.17044100000000   -1.90071700000000
C        -0.26285800000000   -1.20329400000000   -3.67406200000000
C         0.61833000000000   -0.10508100000000   -3.16709100000000
C         0.13240200000000   -2.59499800000000   -3.07104700000000
C         1.89787700000000   -0.20451200000000   -2.69171600000000
C         1.82182900000000    2.04945800000000   -1.91937400000000
C         2.21563600000000    3.20023100000000   -1.05976700000000
C         2.49061200000000    0.86216400000000   -2.03355800000000
C         2.08594900000000    2.18345500000000    1.16661900000000
C         3.05364800000000    2.62711200000000    0.13897900000000
C         1.61254300000000    0.40804200000000    2.67252000000000
C         2.44705600000000    1.00128100000000    1.77350300000000
C         0.26486800000000   -1.29832200000000    3.76177100000000
C        -0.41188900000000   -2.44617000000000    2.91597400000000
C         1.80948000000000   -0.90822700000000    3.32153800000000
C        -0.44651200000000   -2.84398300000000    0.60659100000000
C         0.03169700000000   -2.98003600000000   -0.70894300000000
C         0.35973100000000   -2.63332600000000    1.65477500000000
C         1.64634100000000   -2.65830600000000   -2.40607000000000
C         2.67226100000000   -1.46504200000000   -2.57625300000000
C         1.32803900000000   -2.77736200000000   -0.96701400000000
C         3.79024000000000    0.49978800000000   -1.39335700000000
C         4.00526900000000    1.28350400000000   -0.04591600000000
C         3.75063000000000    0.47810400000000    1.31333500000000
C         3.69055400000000   -1.09305700000000   -1.35848900000000
C         2.70089900000000   -1.82106200000000    2.39923200000000
C         1.84231400000000   -2.76301300000000    1.51500900000000
C         2.18718400000000   -2.40569300000000    0.09665800000000
C         3.71502200000000   -1.08371600000000    1.29659500000000
C         3.19092500000000   -1.54616300000000   -0.03124500000000
O        -4.08325700000000    3.00963900000000   -0.04902100000000
H        -4.93015300000000    2.71469900000000    0.32200500000000
O        -2.06715500000000    4.66730300000000    0.97733800000000
H        -2.96806400000000    4.46558800000000    0.67297100000000
O        -0.58691200000000    4.28663100000000   -2.83368000000000
H        -0.23178000000000    5.14284600000000   -2.54405800000000
O        -4.59785800000000    1.08794500000000   -1.78140900000000
H        -4.69943900000000    1.88750700000000   -2.32627000000000
O         0.93433200000000    5.29321200000000   -1.09313500000000
H         0.86393400000000    5.77081900000000   -0.23719700000000
O         0.46013200000000    5.09545400000000    1.30179500000000
H        -0.28119200000000    5.29264900000000    1.89336800000000
O        -3.13752200000000    2.75912400000000   -3.00786200000000
H        -2.56033500000000    3.24233800000000   -3.61908600000000
O        -1.54250100000000    3.67699900000000    3.33084200000000
H        -2.40658000000000    3.51086700000000    3.74521300000000
O        -1.79484500000000    1.44058700000000   -4.63970500000000
H        -2.50647300000000    0.87885100000000   -4.99474400000000
O        -2.61341700000000   -0.98216500000000   -4.32528100000000
H        -2.06738100000000   -1.26287100000000   -5.08857100000000
O        -4.50852500000000   -0.93150900000000    2.08990700000000
H        -5.20584100000000   -1.14844900000000    1.43670500000000
O        -4.87626100000000   -1.22579700000000   -0.38002200000000
H        -5.12295600000000   -0.47774700000000   -0.95113000000000
O        -0.94647500000000    0.48915700000000    4.98198800000000
H        -0.43640600000000   -0.02907500000000    5.62691100000000
O         0.30437800000000   -1.69148300000000    5.09469100000000
H         0.21150900000000   -2.66519100000000    5.09528500000000
O        -0.39534200000000   -3.61893100000000    3.70042200000000
H        -1.31828500000000   -3.90205000000000    3.80817600000000
O        -2.78945400000000   -2.80664200000000    3.26192700000000
H        -3.65832400000000   -2.39841300000000    3.10170400000000
O        -0.20304000000000   -1.27038800000000   -5.07821700000000
H         0.07531200000000   -2.17522400000000   -5.30906800000000
O         0.10685000000000   -3.50738600000000   -4.12589000000000
H         0.73178100000000   -4.21786100000000   -3.88122600000000
O        -4.71285400000000    1.54509400000000    1.77460200000000
H        -4.82027000000000    1.28533400000000    2.70182200000000
O        -3.12694700000000    1.76318800000000    3.69075500000000
H        -2.58998500000000    1.45561100000000    4.44304800000000
O         2.25035100000000   -3.82420200000000   -2.89212300000000
H         2.90819100000000   -3.51901500000000   -3.55090200000000
O         3.45262100000000   -1.75702500000000   -3.70234000000000
H         4.37001000000000   -1.85757200000000   -3.37369600000000
O         4.93921200000000   -1.64206500000000   -1.64252200000000
H         5.51065200000000   -0.89106600000000   -1.90872300000000
O         3.88615700000000    3.63884100000000    0.62984200000000
H         4.05493000000000    4.23172200000000   -0.12827400000000
O         5.33100900000000    1.71292900000000   -0.06797000000000
H         5.41247000000000    2.39813000000000    0.61884900000000
O         4.77218300000000    0.87457900000000    2.21379800000000
H         4.42655000000000    0.78539700000000    3.11299100000000
O         3.05038100000000    4.11651100000000   -1.71945700000000
H         2.51778000000000    4.91399400000000   -1.89694100000000
O         4.85753800000000    0.78591300000000   -2.26771000000000
H         5.42440200000000    1.44450200000000   -1.82920800000000
O        -0.99729800000000   -4.55203600000000   -2.08824800000000
H        -1.72515500000000   -4.64387800000000   -2.72661700000000
O        -3.08574700000000   -3.19662200000000   -2.54516600000000
H        -3.97377900000000   -3.17705200000000   -2.15562100000000
O        -3.93504100000000   -3.45174800000000   -0.20143100000000
H        -3.72360000000000   -4.17936800000000    0.41310200000000
O        -2.11568200000000   -4.37709800000000    1.21943100000000
H        -1.67567600000000   -4.89391300000000    0.52888800000000
O         2.51688200000000   -0.65508800000000    4.50552700000000
H         2.86726700000000   -1.50161800000000    4.82225300000000
O         3.49865500000000   -2.54767300000000    3.27832700000000
H         3.85678500000000   -3.30836700000000    2.80137700000000
O         4.99669800000000   -1.58184900000000    1.50785500000000
H         5.52394400000000   -0.87350000000000    1.91884700000000
O         2.23585300000000   -4.09384700000000    1.80834700000000
H         1.77366000000000   -4.69009000000000    1.20948800000000
