136
 energy: -302.494959412083 gnorm: 0.000291745441 xtb: 6.4.1 (a3dbbd7)
C        -3.24277100000000    1.00881400000000    1.60543100000000
C        -2.20970700000000    0.55052000000000    2.72644700000000
C        -2.16914900000000   -0.99544400000000    2.66451400000000
C        -3.51929800000000   -0.32188500000000    0.77766200000000
C        -2.42789200000000   -1.25726600000000    1.19875100000000
C        -3.81919700000000   -0.24171600000000   -0.74217000000000
C        -3.31121700000000    1.02094000000000   -1.54071100000000
C        -2.85074800000000    2.34842900000000    0.83253000000000
C        -2.84385400000000    2.29759000000000   -0.76704700000000
C        -1.45236700000000    3.07397400000000    1.14529000000000
C        -0.83932300000000    1.08925800000000    2.56702800000000
C        -0.67698100000000    2.56270900000000    2.36201100000000
C         0.26101000000000    0.51907600000000    3.03609200000000
C        -0.86503200000000   -1.72229800000000    3.16501500000000
C         0.39120000000000   -0.85723900000000    3.59067200000000
C        -0.31670300000000   -2.53537200000000    2.02822100000000
C        -2.47400100000000   -2.66577000000000    0.72048000000000
C        -1.11274100000000   -3.35537800000000    1.06661400000000
C        -3.19853500000000   -1.48017600000000   -1.56363900000000
C        -2.57769600000000   -2.72875700000000   -0.83884500000000
C        -2.18357000000000    0.49024100000000   -2.37961500000000
C        -2.13203000000000   -0.83330500000000   -2.40505600000000
C        -1.36151500000000    1.37555700000000   -3.28739600000000
C        -1.40555800000000    2.62207000000000   -1.15281800000000
C        -0.66406400000000    2.99641900000000   -0.12840900000000
C        -0.95183400000000    2.71900400000000   -2.57058700000000
C         0.65224400000000    3.69656800000000   -0.19035200000000
C         0.88272500000000    2.80719100000000    2.35738900000000
C         1.45694400000000    1.45157900000000    2.98285800000000
C         1.56515700000000    3.20857900000000    0.99441000000000
C         2.33957500000000    0.63552900000000    2.12757600000000
C         1.63321700000000   -1.63636500000000    3.00110500000000
C         0.99933200000000   -2.46017800000000    1.92854100000000
C         2.82303000000000   -0.71299900000000    2.51719900000000
C         1.86022900000000   -3.20059200000000    0.96742800000000
C        -0.35768700000000   -3.32220000000000   -0.23503300000000
C        -1.12133400000000   -2.95189400000000   -1.24881900000000
C         1.06327900000000   -3.77920500000000   -0.26988100000000
C        -1.21233600000000   -1.60240000000000   -3.32405300000000
C        -0.65928500000000   -2.91352400000000   -2.66714400000000
C        -0.07013900000000    0.64005300000000   -3.41141200000000
C         0.00120600000000   -0.73271500000000   -3.44196200000000
C         0.63523700000000    2.81815300000000   -2.70954000000000
C         1.48089600000000    3.43777100000000   -1.52366700000000
C         1.00245500000000    1.39179200000000   -2.97205000000000
C         2.35205600000000    2.14994200000000    0.30217800000000
C         2.75697700000000    0.99974300000000    0.87593700000000
C         2.77635400000000    2.58805100000000   -1.04406400000000
C         3.57899600000000   -1.21500600000000    1.19422200000000
C         2.74282400000000   -2.13407600000000    0.37265000000000
C         3.86505600000000    0.11826900000000    0.38620700000000
C         1.82948700000000   -3.23973400000000   -1.52517800000000
C         0.93251700000000   -2.84348800000000   -2.77732200000000
C         1.16014100000000   -1.38459100000000   -3.06948900000000
C         2.63963600000000   -2.08877800000000   -0.94230600000000
C         2.16114600000000    0.75221000000000   -2.62497700000000
C         3.30454000000000    1.38473600000000   -1.90970500000000
C         3.99564900000000    0.11003700000000   -1.17259300000000
C         2.24644700000000   -0.62637500000000   -2.69461800000000
C         3.36584100000000   -1.16312900000000   -1.85956400000000
O        -4.44868000000000    1.28424800000000    2.27554800000000
H        -4.27342600000000    1.14386500000000    3.23145400000000
O        -5.20336300000000   -0.25246100000000   -0.93749400000000
H        -5.60917000000000   -0.59160000000000   -0.11889400000000
O        -3.52076500000000   -3.39687700000000    1.31469200000000
H        -3.90598700000000   -3.93163100000000    0.59170700000000
O        -2.69580600000000    0.94737400000000    3.98938300000000
H        -2.31935200000000    1.82578000000000    4.18653600000000
O        -3.33028000000000   -3.87243800000000   -1.14693700000000
H        -3.91037600000000   -3.62113900000000   -1.89364400000000
O        -4.20493500000000   -1.96116100000000   -2.42334100000000
H        -4.96980500000000   -1.35948400000000   -2.29890100000000
O        -3.26379600000000   -1.47093200000000    3.42746000000000
H        -2.93471800000000   -2.22571700000000    3.95318800000000
O        -4.31506300000000    1.36231600000000   -2.45916000000000
H        -4.58159700000000    2.27925700000000   -2.26397900000000
O        -3.64056200000000    3.35836500000000   -1.22854200000000
H        -3.86260300000000    3.90661200000000   -0.45131800000000
O        -3.80264000000000    3.31173100000000    1.20348400000000
H        -4.54826500000000    2.82637700000000    1.61567300000000
O        -1.19668800000000   -2.56378600000000    4.23760900000000
H        -0.88498700000000   -2.10270000000000    5.04272700000000
O         0.46931000000000   -0.79823400000000    4.98772300000000
H         1.21234000000000   -1.36716800000000    5.25472100000000
O         2.55699000000000   -4.20542900000000    1.65577500000000
H         2.64599700000000   -4.95391300000000    1.04120900000000
O         1.10984400000000   -5.18122100000000   -0.24951400000000
H         0.38286800000000   -5.48793900000000    0.31500800000000
O         2.12682300000000   -2.49000600000000    4.01190500000000
H         2.42928400000000   -3.30645900000000    3.58401700000000
O        -1.28553000000000   -4.67575500000000    1.50810200000000
H        -2.17485300000000   -4.71302800000000    1.90428800000000
O         2.80383600000000   -4.16327000000000   -1.94593800000000
H         2.46494800000000   -4.57846300000000   -2.76300600000000
O        -1.10970700000000   -4.04797000000000   -3.35690500000000
H        -1.71410900000000   -3.73209800000000   -4.05196100000000
O         1.31252400000000   -3.66418000000000   -3.84832300000000
H         0.52655900000000   -4.21536300000000   -4.05099700000000
O         3.73426000000000   -0.59107400000000    3.58034600000000
H         4.26547000000000   -1.40264400000000    3.60695100000000
O         4.77318300000000   -1.83930700000000    1.55207100000000
H         5.42468900000000   -1.11632700000000    1.64100600000000
O         5.06124400000000    0.63254700000000    0.93837100000000
H         5.66823100000000    0.82660200000000    0.20516100000000
O        -1.85045800000000   -1.93465700000000   -4.53231000000000
H        -2.24549800000000   -1.12962800000000   -4.89111100000000
O        -2.01619000000000    1.59361200000000   -4.50124800000000
H        -2.62071600000000    2.34095400000000   -4.36265900000000
O         4.21929100000000    1.93066200000000   -2.82628400000000
H         5.06211900000000    1.45443300000000   -2.70775100000000
O         0.86181500000000    3.57285600000000   -3.87510100000000
H         1.48923700000000    4.28129900000000   -3.63107000000000
O         5.36518200000000    0.14422900000000   -1.48708200000000
H         5.55284500000000   -0.68543400000000   -1.97370000000000
O         4.37865300000000   -1.85555900000000   -2.55581700000000
H         4.13715700000000   -2.79930400000000   -2.55700000000000
O         2.00471400000000    1.73174300000000    4.23594100000000
H         2.67194400000000    1.05921000000000    4.43709100000000
O        -1.25221600000000    3.19519300000000    3.50324600000000
H        -0.51133900000000    3.61616500000000    3.97859700000000
O         1.08658400000000    3.84012700000000    3.27347200000000
H         1.95609200000000    4.23048900000000    3.09263300000000
O        -1.56081500000000    3.80975000000000   -3.18438300000000
H        -0.93953400000000    4.09179900000000   -3.88475600000000
O        -1.70200000000000    4.45059000000000    1.33841800000000
H        -2.06611100000000    4.55311000000000    2.23348500000000
O         3.84330100000000    3.49753800000000   -0.89226700000000
H         4.24054400000000    3.60433000000000   -1.77458600000000
O         1.97458900000000    4.66688900000000   -1.98028100000000
H         1.53275900000000    5.36317500000000   -1.45903200000000
O         0.43946600000000    5.08398800000000   -0.11503000000000
H        -0.33331700000000    5.23864300000000    0.45829500000000
O        -4.71303200000000   -0.90400800000000    1.29925100000000
H        -4.53444500000000   -1.21778700000000    2.20702300000000
O         2.46456200000000    4.25241500000000    1.32794800000000
H         3.11495400000000    4.33523400000000    0.60866400000000
