136
 energy: -302.498303342225 gnorm: 0.000158605150 xtb: 6.4.1 (a3dbbd7)
C        -2.77145600000000    1.49790400000000    2.15512800000000
C        -1.73771300000000    0.74198700000000    3.12288100000000
C        -1.99375700000000   -0.77684300000000    2.89027700000000
C        -3.43651200000000    0.34757500000000    1.30735700000000
C        -2.50276000000000   -0.81232900000000    1.47037600000000
C        -3.90925100000000    0.66103500000000   -0.14153200000000
C        -3.26116800000000    1.87294700000000   -0.92530100000000
C        -2.08522700000000    2.69237800000000    1.38661100000000
C        -2.44394200000000    2.94280000000000   -0.14283100000000
C        -0.58841400000000    2.68177900000000    1.37666700000000
C        -0.30006800000000    1.04268200000000    2.87390500000000
C         0.17834400000000    2.45435800000000    2.60261200000000
C         0.70166700000000    0.17709800000000    2.90606400000000
C        -0.81028300000000   -1.79267200000000    3.10107000000000
C         0.62320800000000   -1.22910100000000    3.37012900000000
C        -0.61199400000000   -2.54871400000000    1.82093200000000
C        -2.91159800000000   -2.12291400000000    0.89212800000000
C        -1.69407100000000   -3.10194600000000    0.95444600000000
C        -3.69003500000000   -0.57715800000000   -1.14771600000000
C        -3.24991200000000   -1.99441800000000   -0.62882200000000
C        -2.39853600000000    1.22774500000000   -1.96482300000000
C        -2.64080300000000   -0.06779600000000   -2.10117600000000
C        -1.56057600000000    2.03097300000000   -2.93211200000000
C        -1.07123100000000    3.09447600000000   -0.79201200000000
C        -0.07737400000000    2.98088700000000    0.14331000000000
C        -0.77107800000000    3.23850000000000   -2.22827500000000
C         1.31561800000000    3.47039800000000   -0.01186400000000
C         1.73413900000000    2.33721300000000    2.40656700000000
C         2.04583500000000    0.83048800000000    2.85096900000000
C         2.26985900000000    2.73970800000000    0.97995400000000
C         3.05907400000000    0.05073800000000    1.99717400000000
C         1.60182400000000   -2.16443200000000    2.55127600000000
C         0.66358400000000   -2.71319000000000    1.51923900000000
C         2.94979000000000   -1.52566900000000    2.01168500000000
C         1.19312800000000   -3.50911000000000    0.38563100000000
C        -1.14723800000000   -3.08274800000000   -0.44726200000000
C        -1.94914400000000   -2.45455400000000   -1.28956300000000
C         0.12876400000000   -3.79873200000000   -0.74591500000000
C        -2.04117600000000   -0.89665200000000   -3.21300100000000
C        -1.69491000000000   -2.35412100000000   -2.75696800000000
C        -0.47774200000000    1.07780700000000   -3.30845500000000
C        -0.70097000000000   -0.27331000000000   -3.45185200000000
C         0.78125600000000    2.98431200000000   -2.56494900000000
C         1.90003700000000    3.24891600000000   -1.46425200000000
C         0.77843600000000    1.54642700000000   -2.98114000000000
C         2.72967500000000    1.60529800000000    0.11448700000000
C         3.04234700000000    0.40819100000000    0.54720500000000
C         3.02251400000000    2.11270100000000   -1.26673100000000
C         3.30517600000000   -1.96509900000000    0.49535700000000
C         2.16875800000000   -2.56377900000000   -0.25495400000000
C         3.78817900000000   -0.63794500000000   -0.21898900000000
C         0.80651100000000   -3.28886100000000   -2.06380000000000
C        -0.15585800000000   -2.58756900000000   -3.11789900000000
C         0.33358300000000   -1.17875700000000   -3.32328700000000
C         1.91488000000000   -2.38539700000000   -1.53587800000000
C         1.80992400000000    0.65278800000000   -2.87041200000000
C         3.15004600000000    0.96086800000000   -2.30764000000000
C         3.66990000000000   -0.49280200000000   -1.78190500000000
C         1.59789000000000   -0.69666100000000   -3.06455000000000
C         2.69486500000000   -1.52893000000000   -2.47242100000000
O        -3.77671100000000    2.06147200000000    2.94903600000000
H        -3.46142600000000    1.98930900000000    3.87687600000000
O        -5.27754800000000    0.96072700000000   -0.11525900000000
H        -5.62961900000000    0.61356300000000    0.72534900000000
O        -3.99767700000000   -2.68797300000000    1.59522000000000
H        -4.57438900000000   -3.07725600000000    0.90854800000000
O        -2.03508900000000    1.09964100000000    4.44963700000000
H        -2.49334000000000    0.33007600000000    4.84131300000000
O        -4.26538300000000   -2.92770600000000   -0.89129900000000
H        -4.85352000000000   -2.51739000000000   -1.55362900000000
O        -4.88545300000000   -0.75376800000000   -1.87083300000000
H        -5.49351000000000   -0.04825900000000   -1.56878200000000
O        -3.02526300000000   -1.12420500000000    3.81827400000000
H        -2.80064500000000   -2.01724200000000    4.14857600000000
O        -4.26117000000000    2.50594600000000   -1.67974400000000
H        -4.75525300000000    3.10597600000000   -1.10412500000000
O        -3.18499300000000    4.12888800000000   -0.24048800000000
H        -2.68678800000000    4.83448600000000    0.19330800000000
O        -2.39972000000000    3.87525800000000    2.10646700000000
H        -3.29965300000000    3.74012700000000    2.46934800000000
O        -1.15845000000000   -2.68898400000000    4.13026800000000
H        -0.47525400000000   -2.60709200000000    4.81735200000000
O         0.87094800000000   -1.29156600000000    4.74759800000000
H         1.57758600000000   -0.65163900000000    4.94897800000000
O         1.76473500000000   -4.68814100000000    0.88950900000000
H         1.86965300000000   -5.29912100000000    0.14518600000000
O        -0.11359000000000   -5.17509100000000   -0.84526200000000
H        -0.73956100000000   -5.41204400000000   -0.14424700000000
O         1.95542100000000   -3.24698800000000    3.39746800000000
H         1.99110200000000   -4.04581200000000    2.84393500000000
O        -2.07114800000000   -4.39910500000000    1.33104000000000
H        -2.87937000000000   -4.30426900000000    1.86501800000000
O         1.48656000000000   -4.34066900000000   -2.70164800000000
H         0.97481800000000   -4.56364400000000   -3.50337500000000
O        -2.47234500000000   -3.29456900000000   -3.44829800000000
H        -3.06737300000000   -2.79413400000000   -4.03331400000000
O        -0.11672200000000   -3.34032800000000   -4.29957800000000
H        -1.01293600000000   -3.72503800000000   -4.39981900000000
O         3.99420700000000   -1.97726700000000    2.82544000000000
H         3.61639800000000   -2.65593700000000    3.42088700000000
O         4.31753600000000   -2.92290000000000    0.51228600000000
H         4.89512000000000   -2.71388500000000    1.26756900000000
O         3.41685500000000   -2.31104100000000   -3.39164700000000
H         3.01762800000000   -3.19725800000000   -3.40327500000000
O        -2.89820200000000   -0.95772200000000   -4.32685900000000
H        -3.07891000000000   -0.05399100000000   -4.61496700000000
O        -2.34139600000000    2.47204400000000   -3.99794700000000
H        -3.03231000000000    3.04618200000000   -3.63191100000000
O        -1.20147500000000    4.45817100000000   -2.73180000000000
H        -0.70939200000000    4.59555100000000   -3.56124600000000
O         1.04862400000000    3.79189500000000   -3.68444500000000
H         1.93012600000000    4.18594300000000   -3.55379100000000
O         2.57797700000000    4.41625300000000   -1.83922500000000
H         2.11420700000000    5.15936200000000   -1.40981500000000
O         1.27639900000000    4.84906500000000    0.27473400000000
H         2.09631000000000    5.04204600000000    0.76849800000000
O         5.14852600000000   -0.47218700000000    0.14122000000000
H         5.66053100000000   -0.60023700000000   -0.67960200000000
O         4.95743600000000   -0.68196100000000   -2.29001700000000
H         4.87895400000000   -1.28960600000000   -3.04647300000000
O         3.36475300000000    3.63302000000000    1.14938500000000
H         3.61322600000000    3.60828600000000    2.08911900000000
O         2.37023700000000    3.19067000000000    3.31622000000000
H         1.71840500000000    3.42562000000000    3.99749100000000
O         2.51189800000000    0.83973200000000    4.18257100000000
H         3.48129500000000    0.91513800000000    4.13177700000000
O         3.97547600000000    1.36991200000000   -3.35275400000000
H         4.73843000000000    1.82072500000000   -2.96018500000000
O        -0.10409300000000    3.34975000000000    3.64480900000000
H        -0.93934100000000    3.79954000000000    3.43174400000000
O        -4.65031600000000   -0.01508700000000    1.97256200000000
H        -4.42678400000000   -0.54254200000000    2.75952700000000
O         4.31370900000000    0.44714300000000    2.51389400000000
H         4.99918000000000    0.10465700000000    1.91477900000000
O         4.29373900000000    2.71144400000000   -1.25936600000000
H         4.32598100000000    3.35702200000000   -0.53691600000000
