140
 energy: -311.637324345740 gnorm: 0.000166589101 xtb: 6.4.1 (a3dbbd7)
C        -3.75588000000000   -0.76639300000000    0.34297600000000
C        -3.03493700000000   -2.14328100000000    0.85299000000000
C        -2.30450500000000   -2.68350200000000   -0.40661000000000
C        -3.44728100000000   -0.71609700000000   -1.19523600000000
C        -2.22970300000000   -1.54590200000000   -1.37079100000000
C        -3.42754800000000    0.66899500000000   -1.90560500000000
C        -3.15837200000000    1.99091300000000   -1.04866000000000
C        -3.41934600000000    0.49476700000000    1.18785200000000
C        -3.38224700000000    1.91913300000000    0.51145500000000
C        -2.14198500000000    0.44374500000000    1.96958500000000
C        -2.11313600000000   -2.04139500000000    2.12398300000000
C        -1.59305200000000   -0.66808700000000    2.39077000000000
C        -0.78947200000000   -2.90550500000000    2.23287800000000
C        -0.88828700000000   -3.06819100000000   -0.23981800000000
C        -0.21198900000000   -3.14832900000000    0.88640600000000
C        -0.12646400000000   -3.54184300000000   -1.44870700000000
C        -1.79214700000000   -1.91504200000000   -2.74127400000000
C        -0.40745800000000   -2.69963900000000   -2.72889200000000
C        -2.30290900000000    0.70851000000000   -3.05711500000000
C        -1.53643300000000   -0.60058300000000   -3.54979000000000
C        -1.79441300000000    2.42190200000000   -1.48223000000000
C        -1.32914000000000    1.71970400000000   -2.51563800000000
C        -1.09333600000000    3.56668100000000   -0.85715200000000
C        -2.26164500000000    2.73470000000000    1.35161000000000
C        -1.87030200000000    1.79396400000000    2.55457300000000
C        -1.04063100000000    3.10591100000000    0.57884200000000
C        -0.46979500000000    1.94547000000000    3.24748000000000
C        -0.59355700000000   -0.72426300000000    3.49635300000000
C         0.17690200000000   -2.07500700000000    3.23267600000000
C         0.24408500000000    0.55716500000000    3.64843000000000
C         1.66878700000000   -1.99712700000000    2.70484200000000
C         1.23392200000000   -3.48425600000000    0.64498700000000
C         1.38605600000000   -3.63327700000000   -0.91987600000000
C         1.89229800000000   -2.30277400000000    1.24503500000000
C         2.44484300000000   -2.65220400000000   -1.59541000000000
C         0.57182100000000   -1.59439600000000   -2.89564400000000
C        -0.04272400000000   -0.44416400000000   -3.40756800000000
C         1.82982400000000   -1.57949200000000   -2.43552500000000
C         0.00553800000000    1.85845300000000   -2.91057800000000
C         0.65911900000000    0.73887200000000   -3.34503000000000
C         0.42925100000000    3.81992600000000   -1.27487100000000
C         0.93270000000000    2.96136900000000   -2.50962300000000
C         0.18941200000000    3.10465900000000    1.05311200000000
C         0.63013700000000    2.68319900000000    2.40607700000000
C         1.21765800000000    3.68115600000000    0.11919200000000
C         1.47287400000000    0.51898800000000    2.78723800000000
C         2.42563900000000   -0.61964100000000    2.85292800000000
C         1.69249900000000    1.65563200000000    2.15495000000000
C         2.81679700000000   -1.55251700000000    0.67852000000000
C         3.40281900000000   -1.81634800000000   -0.66725600000000
C         3.42258000000000   -0.56358500000000    1.64194000000000
C         2.82355100000000   -0.48349200000000   -2.73207400000000
C         2.15887900000000    0.87178200000000   -3.25625800000000
C         2.29980000000000    2.16267900000000   -2.35598100000000
C         3.63175800000000   -0.42443500000000   -1.40700900000000
C         2.54771500000000    2.86839600000000    0.09080500000000
C         2.90657100000000    2.06263700000000    1.40552800000000
C         3.65820800000000    0.80031300000000    0.89281700000000
C         2.57015100000000    1.79517600000000   -0.94847100000000
C         3.16587300000000    0.68774000000000   -0.53393300000000
O        -5.13952300000000   -0.91505900000000    0.49586900000000
H        -5.44373900000000   -1.52557300000000   -0.19511800000000
O        -4.67550400000000    0.88396500000000   -2.50228800000000
H        -5.12313500000000    0.01347700000000   -2.53146500000000
O        -2.77185400000000   -2.70361100000000   -3.39956600000000
H        -2.61599500000000   -2.56461700000000   -4.35193000000000
O        -4.07019600000000   -3.02158300000000    1.20065300000000
H        -4.08773500000000   -3.71809400000000    0.51696500000000
O        -1.87144000000000   -0.86225900000000   -4.88666700000000
H        -2.22713200000000   -0.03129000000000   -5.25308000000000
O        -2.89276600000000    1.26982800000000   -4.20534800000000
H        -3.81224800000000    1.49862100000000   -3.96280100000000
O        -3.06317800000000   -3.79202800000000   -0.90250100000000
H        -2.45448800000000   -4.40780800000000   -1.33722800000000
O        -3.99364200000000    3.01423500000000   -1.54680700000000
H        -4.87916000000000    2.88256800000000   -1.16666700000000
O        -1.05151900000000   -4.16063000000000    2.78404100000000
H        -1.60566300000000   -4.01573300000000    3.56876000000000
O         2.40928900000000   -2.97369300000000    3.41833300000000
H         2.93564000000000   -2.46689000000000    4.07272500000000
O         0.17543300000000   -2.73633100000000    4.46234700000000
H         0.88950300000000   -3.39481900000000    4.44668400000000
O        -2.89077600000000   -2.40393700000000    3.25584500000000
H        -3.73121600000000   -2.75619700000000    2.90668600000000
O         3.11688100000000   -0.62578600000000    4.07299900000000
H         4.05914000000000   -0.50488500000000    3.87545000000000
O         4.64755700000000   -1.05531800000000    2.12914700000000
H         5.16578200000000   -1.38373000000000    1.38036800000000
O         5.04435600000000    1.05093200000000    0.83614000000000
H         5.21264400000000    1.82615300000000    1.39626400000000
O         3.75748300000000    2.79042200000000    2.24514100000000
H         3.22017900000000    3.48195200000000    2.66535500000000
O        -4.39480600000000    0.55167900000000    2.21940600000000
H        -5.25250900000000    0.32564300000000    1.82391200000000
O        -4.62348100000000    2.51747100000000    0.75779800000000
H        -4.42595300000000    3.37435700000000    1.19571100000000
O         3.36709300000000    2.96448500000000   -2.77547200000000
H         3.15424300000000    3.22757700000000   -3.68831900000000
O         4.99310200000000   -0.24519900000000   -1.71018400000000
H         5.41734200000000    0.19057800000000   -0.95357300000000
O         3.60676900000000    3.76952900000000   -0.15515800000000
H         3.78225300000000    3.77460300000000   -1.11321700000000
O         1.50084200000000    4.96824600000000    0.58488800000000
H         2.44621500000000    5.13439400000000    0.41455900000000
O         2.68980800000000    1.19323300000000   -4.50709300000000
H         3.11970900000000    0.38737700000000   -4.84902800000000
O         3.67337500000000   -0.95528500000000   -3.75400100000000
H         4.58467500000000   -0.76335100000000   -3.47168200000000
O         1.09476700000000    3.78979100000000   -3.63322800000000
H         0.91581700000000    4.70207200000000   -3.33609100000000
O         0.55688700000000    5.15130500000000   -1.68654700000000
H        -0.13314400000000    5.66431400000000   -1.23841000000000
O        -0.31614600000000   -3.52091000000000   -3.85952900000000
H        -0.77341400000000   -4.35091900000000   -3.64261900000000
O         4.62360800000000   -2.46291200000000   -0.44902000000000
H         4.83251400000000   -2.95731500000000   -1.25755800000000
O         1.67857000000000   -4.67472000000000    1.24956300000000
H         1.96591800000000   -4.47116600000000    2.15194100000000
O        -0.59175900000000   -4.85238300000000   -1.72995500000000
H         0.19012400000000   -5.43645400000000   -1.63708400000000
O        -2.86025600000000    3.89939100000000    1.85332700000000
H        -2.95401300000000    3.75198100000000    2.81904400000000
O         1.82342700000000   -4.93614200000000   -1.19843700000000
H         2.10203300000000   -5.32996800000000   -0.35060700000000
O         1.19373200000000    3.74989800000000    3.12460600000000
H         0.55345700000000    3.96242900000000    3.83083000000000
O        -0.66482400000000    2.69833700000000    4.40426400000000
H        -0.22776500000000    2.19783200000000    5.12629100000000
O         0.65156600000000    0.66964900000000    4.98762100000000
H         0.11553600000000    0.03668700000000    5.49859300000000
O        -4.53222400000000   -1.45447900000000   -1.81575500000000
H        -4.13610900000000   -2.12450300000000   -2.41208400000000
O        -2.79266200000000    2.05786700000000    3.58787400000000
H        -3.60868100000000    1.55528800000000    3.40200000000000
O        -1.29762000000000   -0.81730700000000    4.71557600000000
H        -1.99360500000000   -1.48653900000000    4.61745600000000
O        -1.80851900000000    4.76490700000000   -1.02605400000000
H        -2.73546300000000    4.54037400000000   -1.20802800000000
O         3.32771200000000   -3.42214500000000   -2.38371400000000
H         2.82572300000000   -3.85661100000000   -3.08312400000000
