144
 energy: -320.788652343078 gnorm: 0.000269678580 xtb: 6.4.1 (a3dbbd7)
C         3.54532700000000   -0.14003800000000    1.49587600000000
C         2.90275100000000    1.25220400000000    1.94889100000000
C         2.94289300000000    2.15785800000000    0.68672100000000
C         3.63056100000000   -0.01144200000000   -0.07560000000000
C         2.75725500000000    1.15603400000000   -0.42150500000000
C         3.48691100000000   -1.29082300000000   -0.94016800000000
C         2.63161200000000   -2.46675300000000   -0.36754100000000
C         2.86153700000000   -1.43140100000000    2.16023000000000
C         2.48531800000000   -2.65553200000000    1.17641300000000
C         1.55141300000000   -1.25584400000000    3.06797200000000
C         1.51220700000000    1.17292900000000    2.45904200000000
C         1.17745500000000    0.16772800000000    3.50602100000000
C         0.61324400000000    2.13737700000000    2.38022100000000
C         1.89109000000000    3.32514600000000    0.56595700000000
C         0.74105400000000    3.41941700000000    1.64236300000000
C         1.12256700000000    3.12491700000000   -0.72027600000000
C         2.84961000000000    1.67003500000000   -1.81783900000000
C         1.75287900000000    2.80635500000000   -2.03399200000000
C         2.88848300000000   -0.98882000000000   -2.42127300000000
C         2.49583000000000    0.50533900000000   -2.79854100000000
C         1.36335100000000   -2.38603900000000   -1.15287500000000
C         1.68115500000000   -2.03890800000000   -2.56496300000000
C         0.22418900000000   -2.92505100000000   -0.79865500000000
C         1.00611700000000   -3.11796600000000    1.59552800000000
C         0.46667900000000   -1.93309200000000    2.30884500000000
C         0.03824200000000   -3.61736400000000    0.50347500000000
C        -0.81364500000000   -1.70485400000000    2.48339700000000
C        -0.36183600000000    0.44269000000000    3.85738100000000
C        -0.62122600000000    1.84137000000000    3.19761500000000
C        -1.37319600000000   -0.68675300000000    3.43826300000000
C        -1.70357900000000    1.87558800000000    2.18515700000000
C        -0.56173400000000    3.74995600000000    0.81774500000000
C        -0.17618100000000    3.29875600000000   -0.55808700000000
C        -1.88592800000000    3.13341000000000    1.38916700000000
C        -1.23623300000000    3.27489500000000   -1.58932600000000
C         0.71036900000000    2.18651300000000   -3.03488400000000
C         1.01811500000000    0.73583000000000   -2.88559800000000
C        -0.81386200000000    2.60244300000000   -2.94103000000000
C         0.40136000000000   -1.63867700000000   -3.32040500000000
C         0.07730400000000   -0.21600100000000   -3.05480700000000
C        -0.95047800000000   -3.21807800000000   -1.68165900000000
C        -0.98615400000000   -2.38554200000000   -2.99965600000000
C        -1.53458000000000   -3.49361600000000    0.74990800000000
C        -1.93294500000000   -2.56589800000000    1.96563100000000
C        -2.12523000000000   -3.07211900000000   -0.65601000000000
C        -2.72692100000000   -0.29928700000000    2.74536100000000
C        -2.61684400000000    0.95413700000000    1.94413400000000
C        -3.07441400000000   -1.51198900000000    1.77886800000000
C        -2.95207100000000    2.69123700000000    0.30505700000000
C        -2.30642300000000    2.38453100000000   -1.00085600000000
C        -3.63214200000000    1.39697000000000    0.90679200000000
C        -1.84268500000000    1.39724300000000   -3.09600900000000
C        -1.25924000000000    0.04205400000000   -3.14748600000000
C        -2.07500700000000   -1.20028600000000   -3.12685900000000
C        -2.58251200000000    1.35384500000000   -1.77582300000000
C        -2.67022600000000   -1.69110600000000   -0.67097000000000
C        -3.14239000000000   -1.02376400000000    0.37011200000000
C        -3.96156600000000    0.18420600000000   -0.04539200000000
C        -3.14519900000000   -1.13212900000000   -1.97594400000000
C        -3.62515700000000    0.31896400000000   -1.56763500000000
O         4.87446300000000   -0.09360700000000    1.93083900000000
H         4.95218400000000   -0.74892200000000    2.65599500000000
O         4.77245000000000   -1.84007500000000   -1.10488400000000
H         5.40042900000000   -1.16818600000000   -0.75487700000000
O         4.12710700000000    2.24021600000000   -2.07399300000000
H         3.95564000000000    3.08646100000000   -2.54100500000000
O         3.66249200000000    1.78821000000000    2.99978400000000
H         4.59560200000000    1.65522800000000    2.74558400000000
O         3.07058500000000    0.82348200000000   -4.05577900000000
H         3.57084200000000    0.03914000000000   -4.34714200000000
O         3.87518800000000   -1.35600500000000   -3.34168200000000
H         4.56622800000000   -1.83334100000000   -2.83535600000000
O         4.22961200000000    2.77132800000000    0.67050800000000
H         4.57391400000000    2.73370600000000   -0.23733900000000
O         3.20176500000000   -3.66318500000000   -0.88461500000000
H         3.87948700000000   -3.96752200000000   -0.26025900000000
O         3.34562900000000   -3.70937100000000    1.52895200000000
H         2.78829100000000   -4.28635300000000    2.11266600000000
O         3.83065900000000   -1.90215500000000    3.06382700000000
H         4.05172100000000   -2.81755300000000    2.79445400000000
O         2.55011900000000    4.55959100000000    0.57739300000000
H         3.50327600000000    4.35266200000000    0.69276300000000
O         0.98924900000000    4.46292400000000    2.53911400000000
H         1.74260200000000    4.96002500000000    2.15829400000000
O        -0.73725400000000    5.14831600000000    0.75433000000000
H        -0.38583100000000    5.50467900000000    1.59097300000000
O        -2.46188700000000    4.08901000000000    2.24789900000000
H        -3.08675300000000    4.60648200000000    1.70893500000000
O        -3.89288700000000    3.71096300000000    0.14025200000000
H        -4.68689500000000    3.41850500000000    0.63192800000000
O        -4.78958600000000    0.68006900000000   -2.26014300000000
H        -4.52520900000000    0.94705100000000   -3.15541500000000
O        -3.19579100000000   -3.91161300000000   -1.01680700000000
H        -3.08892500000000   -4.72943000000000   -0.49610200000000
O        -4.29446600000000   -2.08254600000000    2.16193200000000
H        -4.71626800000000   -1.43437300000000    2.76378000000000
O        -4.81266200000000    1.83147500000000    1.52337200000000
H        -5.48168100000000    1.13705500000000    1.36404900000000
O        -5.32630000000000   -0.12689300000000    0.09673000000000
H        -5.73335600000000   -0.03661100000000   -0.78122900000000
O        -2.02396600000000   -4.77879600000000    0.99992200000000
H        -2.19060600000000   -4.81642600000000    1.96584700000000
O        -2.32699600000000   -3.43183400000000    3.00719600000000
H        -3.28700900000000   -3.28625100000000    3.13026100000000
O        -3.75381700000000   -0.15178800000000    3.68392200000000
H        -3.40598200000000   -0.52441300000000    4.51811000000000
O        -0.83390000000000    2.78417300000000    4.21531900000000
H        -1.29010100000000    3.54933900000000    3.83487600000000
O        -0.49098200000000    0.54309500000000    5.24210200000000
H        -0.26579300000000    1.44978600000000    5.49667600000000
O         1.92417300000000    0.46296800000000    4.67175000000000
H         2.68325400000000    1.01521300000000    4.41121500000000
O        -4.28009400000000   -1.84565700000000   -2.40563000000000
H        -4.21956700000000   -2.75175600000000   -2.05124400000000
O        -2.76084700000000    1.64217800000000   -4.12531200000000
H        -2.38023800000000    2.37574300000000   -4.64711900000000
O        -1.06682400000000    3.48745900000000   -3.98950000000000
H        -1.35797800000000    4.32851900000000   -3.59172800000000
O        -1.69418300000000    4.57927100000000   -1.85463000000000
H        -1.60501300000000    5.10435700000000   -1.04309700000000
O         2.34839600000000    3.93637700000000   -2.59982000000000
H         2.02262100000000    3.96541200000000   -3.52661300000000
O        -2.75597100000000   -1.34652300000000   -4.34032600000000
H        -3.66166700000000   -1.64616300000000   -4.12420000000000
O         0.63386800000000   -1.74070900000000   -4.70013200000000
H         1.21883400000000   -2.50643500000000   -4.82236600000000
O         1.16371800000000   -4.16655600000000    2.52870800000000
H         0.76860600000000   -4.96025400000000    2.12527800000000
O        -1.24559400000000   -3.29903300000000   -4.02468000000000
H        -1.49555000000000   -2.77579000000000   -4.80628200000000
O         0.35988200000000   -4.98281000000000    0.34616900000000
H        -0.08577300000000   -5.30176200000000   -0.45718800000000
O         4.98620600000000    0.41889400000000   -0.32035200000000
H         5.00510500000000    0.91922900000000   -1.15351800000000
O         1.71563400000000   -2.02649300000000    4.22784100000000
H         2.06401300000000   -1.42413700000000    4.91060200000000
O         2.15123400000000   -3.17399200000000   -3.25119500000000
H         2.74127700000000   -3.66378700000000   -2.65371800000000
O        -0.86585000000000   -4.59680900000000   -1.99732900000000
H        -1.01376200000000   -4.68207200000000   -2.95370100000000
O        -1.78024600000000   -1.37413300000000    4.60344600000000
H        -1.04633700000000   -1.37148600000000    5.23220400000000
O         1.11326400000000    2.59427100000000   -4.32887300000000
H         1.81798900000000    1.99010600000000   -4.63286300000000
