144
 energy: -320.791009226493 gnorm: 0.000150243966 xtb: 6.4.1 (a3dbbd7)
C         3.64570607846509   -1.45662525470669    0.02221542478701
C         2.96157688982695   -2.15096476786858    1.33806197045652
C         2.63778016059637   -0.95477964733731    2.27391787038466
C         3.73054215789041    0.06940800349074    0.37765647866999
C         2.71332139402471    0.27158549984791    1.44101378778675
C         3.71737009268268    1.13742871794886   -0.75133007828272
C         3.05898998133480    0.74858610190424   -2.13127643118017
C         2.97713373747251   -1.82830256640977   -1.32604361826103
C         2.95096944165045   -0.77493708416637   -2.49376844907075
C         1.56620219406424   -2.31946168478569   -1.24699190013413
C         1.74715845760992   -3.12470919913535    1.08546159529875
C         1.03305393478597   -2.91796354854050   -0.21227374022915
C         0.53591747106220   -3.15370183265348    2.10091624190600
C         1.25898819498920   -0.89719768645199    2.81495193473768
C         0.31410272843019   -1.81403282915791    2.72367555015786
C         0.89004328621159    0.27551221746699    3.67391354832756
C         2.65211014113988    1.55728596291190    2.17055417393329
C         1.39643161007073    1.64917161948616    3.13947767761464
C         2.92686674689918    2.47533056943011   -0.32466250359059
C         2.47184946214591    2.73021931952205    1.16223782873632
C         1.77549114915768    1.53235636495922   -2.15024160300952
C         1.70162804815588    2.45864234164966   -1.21012023372309
C         0.89803306621613    1.43402683277341   -3.36398443348933
C         1.58454196209474   -1.11418934138275   -3.30105214416009
C         0.99987272511915   -2.41876350843157   -2.61936347003016
C         0.59109625646968   -0.01541868266765   -3.24542664230226
C        -0.53622425355356   -2.62405865328200   -2.60971587819124
C        -0.22411101984726   -3.73665811183169   -0.22989310092710
C        -0.74368657363950   -3.52979649339516    1.23239154865828
C        -1.19855964624071   -3.45759831846254   -1.42817590844142
C        -1.73860766972598   -2.41771928165248    1.30062801764590
C        -0.94190576244795   -1.41140286780169    3.47439635460873
C        -0.67864299749859    0.11027163401670    3.77630987476193
C        -2.19600428815698   -1.79462530362333    2.60518392141351
C        -1.38114302408206    0.97690603394842    2.79929924870474
C         0.41320651846882    2.38237989649344    2.26548304013237
C         0.96783793887054    2.95365804480696    1.21129465962354
C        -1.01513043546292    2.42753481762390    2.67950456613563
C         0.68699667902343    3.55751402017989   -1.20930683690036
C         0.21586957464459    3.84492709991211    0.28179866122000
C        -0.49264590064770    2.18851794782963   -3.23210326065948
C        -0.60789242385501    3.15706730624400   -1.99642850622055
C        -0.73385506878760   -0.18290769910133   -2.92699395891159
C        -1.29528537916994   -1.34678333433066   -2.55174402137035
C        -1.55847907133919    1.02105334386435   -3.23657367158820
C        -2.51971575242371   -2.64411200348349   -1.06560641647161
C        -2.44498094948431   -1.98676644227607    0.26463488856119
C        -2.71689991449125   -1.56777401870280   -2.19857605667542
C        -3.13703405636805   -0.64701184943997    2.11332494518554
C        -2.41756360722172    0.64408157637502    2.05826449202010
C        -3.58400355175354   -1.10070310874377    0.67704344199630
C        -2.01163115604082    3.02326319052366    1.62073144572224
C        -1.33657834970516    3.55756222536671    0.30301887488674
C        -1.49446579506175    2.66482937749679   -0.88933926668080
C        -3.06933272734495    1.82157990358177    1.41017078057643
C        -2.78469697429604    1.10296858008396   -2.30404688853337
C        -3.53107598704495   -0.25272149315016   -1.87322078522475
C        -3.99568794330531    0.02652922021735   -0.33727679483827
C        -2.42330849551947    1.74730769803466   -1.01533244954280
C        -3.50668565477836    1.50846871704448   -0.02931526905054
O         4.94884596210309   -1.95890650594693   -0.09260724603250
H         5.51543526285740   -1.44118200541422    0.50293012022238
O         5.05517079725840    1.48621125602605   -0.97411639412713
H         5.19646766888286    1.47487776102061   -1.93887012242807
O         3.83420698662851    1.73701219403839    2.93657936225840
H         3.71550158481762    2.58604951183300    3.39817474557865
O         3.95359986023993   -2.93668774507808    1.93280132855078
H         4.24187305271172   -2.45814232251668    2.73447546880028
O         3.15301717667359    3.82733264086723    1.69681321993243
H         3.29831318464584    4.45937541060504    0.97446950620080
O         3.70982864586916    3.57404691556395   -0.70960000894070
H         4.61823736091142    3.23404443120852   -0.83827916568104
O         3.56403694986375   -0.97040820089740    3.36072658881000
H         3.87874552385139   -0.06145046035391    3.50709272522228
O         3.89048960518772    1.34624516379527   -3.10990823590301
H         3.34857222710390    1.52924040689238   -3.89756562643051
O         4.01982337009469   -1.02476058845418   -3.35586274700829
H         4.33852753974536   -1.92776936500858   -3.15748928605966
O         3.68713385119026   -2.95847350606137   -1.84992302424376
H         4.42459183400897   -3.13480640041238   -1.23590806534333
O         0.75352023989703   -4.10797831737856    3.09334580147536
H        -0.02620594334388   -4.69665523695793    3.08760560662824
O         2.26967812477126   -4.43688191341391    1.00930628123496
H         3.02260005928990   -4.46787428409155    1.62790259126397
O        -2.95198653773711   -2.73324688289169    3.32777564074865
H        -3.84762500989991   -2.36686595466792    3.41901602915891
O        -1.00539948951007   -2.05776928811467    4.71823549200090
H        -1.72715258677355   -2.71422845842449    4.64347763878023
O         1.72804885935875    2.48579175766445    4.21412911112573
H         1.83731693374590    1.92475184697795    4.99909034623068
O         1.46217737895246    0.11785770205173    4.95744215022373
H         1.32141309150741   -0.79237507421404    5.24633396990545
O        -1.12924244647948    0.46744067381185    5.05504394372701
H        -1.19483676507976   -0.35836850901953    5.56805309086112
O        -4.22657317128021   -0.55352889522925    2.98855937969355
H        -4.59704188834915    0.34342147515415    2.90308132658871
O         1.60126467682904    1.84530882305112   -4.49998700709098
H         1.02729303184017    2.50345764505123   -4.94222209183403
O         1.23572465348997    4.70821681746948   -1.78359641235579
H         1.34712103739645    5.35128249941283   -1.05571868127590
O        -0.63024395942793    2.97284366299777   -4.38256633367588
H        -1.35019297646062    2.58814643920117   -4.90976461590393
O        -1.20301338633826    4.35330126908061   -2.45562557404743
H        -0.51354812894495    4.84223137763309   -2.93542593717493
O        -4.21597752519479    2.09005916768619    2.17853842044706
H        -4.68215340286341    2.81568910934322    1.73321877905639
O        -2.70160011048698    4.09093141759539    2.17716445346458
H        -2.44879667490604    4.14327478624064    3.11503702114780
O        -1.18299883427461    3.11132109885388    3.89748662845085
H        -1.03944699368056    2.48775230138211    4.62471774708481
O         0.46615061032369    5.18499002906840    0.59227331146461
H        -0.41599683732815    5.61234446122660    0.63994413785515
O        -3.62295522112411   -3.51313034811320   -1.01983412098993
H        -3.32680115759663   -4.35805391628655   -1.41391624256658
O        -1.63175478257025   -4.69494389255326   -1.91257640406707
H        -1.37008775615889   -4.74673284837661   -2.85110328127720
O        -0.88986254848121   -3.27801656233347   -3.82520245211712
H        -0.05909926576131   -3.51017128197018   -4.27428644597739
O        -4.69101364629215   -0.31535771395267   -2.64847539591945
H        -5.44621837203567   -0.25890071312853   -2.02034510851430
O        -5.39532367700079    0.07437639393008   -0.34362942142074
H        -5.70283007994618   -0.66862317710666    0.21953272942304
O        -3.74810199698323    1.93800000399721   -2.91229735157612
H        -4.42545865776147    1.33390330693754   -3.28674889406454
O        -4.71552989613022   -1.93546699791531    0.87116715186822
H        -4.64654211073585   -2.68819953969589    0.25445373164715
O        -1.31127089525489   -4.71207055406510    1.71529129563769
H        -1.08738262398972   -5.40429396014518    1.05933196208852
O        -2.01184379969999    0.91159880524347   -4.57448257715601
H        -2.65481749122672    0.19191644756336   -4.62389434955607
O         1.88670225308022   -1.36508921477773   -4.64171042371612
H         2.84345426446067   -1.20281031129550   -4.75880564328213
O         4.99403271644251    0.17593734718643    1.04740000129608
H         5.03512679782766    1.02892519678653    1.50676023450509
O         0.12201187818128   -5.09839021375382   -0.35692727637946
H         0.98622665072401   -5.22784642712290    0.07846064695814
O         1.50352481459349   -3.56068017685874   -3.27997512332851
H         2.42376087316685   -3.69601035924849   -3.00648420542779
O        -4.55607342407656    2.40588939347825   -0.30298844350409
H        -4.60720088359492    2.53483003178335   -1.26535067908635
O        -1.96708434929475    4.79064935729180    0.03861936198487
H        -1.99682141302581    4.91045598729879   -0.93009885978767
O        -3.38976080458155   -2.16118740228393   -3.28973808062832
H        -2.78280551912134   -2.77972937083244   -3.72315525066278
