144
 energy: -320.792774953276 gnorm: 0.000191772938 xtb: 6.4.1 (a3dbbd7)
C         3.52811900000000   -1.69799400000000   -0.03191100000000
C         2.61075000000000   -2.73156800000000    0.84468100000000
C         2.17715200000000   -1.90602100000000    2.08585400000000
C         3.62060000000000   -0.40666900000000    0.85863200000000
C         2.45617700000000   -0.48304800000000    1.77552400000000
C         3.83857300000000    0.98012900000000    0.19374400000000
C         3.40065000000000    1.15425300000000   -1.30996900000000
C         3.07057900000000   -1.51352300000000   -1.50498300000000
C         3.29129900000000   -0.11990100000000   -2.21309100000000
C         1.64301000000000   -1.85635800000000   -1.80066600000000
C         1.41349900000000   -3.42989900000000    0.09977900000000
C         0.92987100000000   -2.71329200000000   -1.11186800000000
C         0.05208900000000   -3.67444200000000    0.86419900000000
C         0.72480600000000   -1.87733700000000    2.38462000000000
C        -0.23836600000000   -2.56524400000000    1.80112700000000
C         0.27178800000000   -1.07357600000000    3.56018100000000
C         2.31796000000000    0.47375300000000    2.89814100000000
C         0.90991900000000    0.34205700000000    3.61664500000000
C         3.04902400000000    2.16281200000000    0.95035500000000
C         2.35940600000000    1.93496200000000    2.34759700000000
C         2.17069900000000    2.01559400000000   -1.23027400000000
C         1.98803700000000    2.57479500000000   -0.04794700000000
C         1.50122000000000    2.40933800000000   -2.51104900000000
C         2.07329500000000   -0.04034200000000   -3.27584000000000
C         1.32445300000000   -1.43300700000000   -3.19813300000000
C         1.11434400000000    1.06230500000000   -3.01293300000000
C        -0.19713500000000   -1.49958500000000   -3.52710400000000
C        -0.32652900000000   -3.36587900000000   -1.59767500000000
C        -1.06916300000000   -3.78419000000000   -0.24239600000000
C        -1.07589500000000   -2.51616100000000   -2.63804400000000
C        -2.39249900000000   -2.96676600000000    0.04611700000000
C        -1.55970000000000   -2.40861400000000    2.50672100000000
C        -1.30673200000000   -1.12900700000000    3.40318600000000
C        -2.77715600000000   -2.43084700000000    1.50863300000000
C        -1.80932800000000    0.09278200000000    2.73840000000000
C         0.13196300000000    1.40668100000000    2.90175400000000
C         0.88140500000000    2.26993900000000    2.24334000000000
C        -1.32751600000000    1.46070900000000    3.14282900000000
C         1.02993800000000    3.70036700000000    0.19682200000000
C         0.32748300000000    3.49828200000000    1.60768500000000
C         0.15363700000000    3.21666600000000   -2.31655200000000
C        -0.13003400000000    3.71027100000000   -0.85505100000000
C        -0.25236800000000    0.93824200000000   -3.04989000000000
C        -0.92495400000000   -0.21442600000000   -3.27301700000000
C        -0.96181700000000    2.24972700000000   -2.93281300000000
C        -2.05445900000000   -1.57481600000000   -2.00075300000000
C        -2.54966500000000   -1.72779500000000   -0.79751400000000
C        -2.36762400000000   -0.44623200000000   -2.95038500000000
C        -3.48509500000000   -1.02927400000000    1.26374100000000
C        -2.70333300000000    0.12575700000000    1.77076600000000
C        -3.69507700000000   -0.91154800000000   -0.28601100000000
C        -2.11892400000000    2.46156400000000    2.23551400000000
C        -1.21809600000000    3.36087900000000    1.30845400000000
C        -1.20185100000000    2.95041200000000   -0.13108200000000
C        -3.17196500000000    1.52167300000000    1.47019700000000
C        -2.29673300000000    2.10576000000000   -2.17940200000000
C        -3.14919200000000    0.76870800000000   -2.36412000000000
C        -3.85701100000000    0.52863000000000   -0.90794400000000
C        -2.12204900000000    2.21919500000000   -0.71051900000000
C        -3.35998500000000    1.75289600000000   -0.03697500000000
O         4.81006700000000   -2.25004500000000   -0.13721900000000
H         5.29446400000000   -2.03073300000000    0.67480800000000
O         5.20793600000000    1.25846000000000    0.29816900000000
H         5.52648300000000    1.46204900000000   -0.60098000000000
O         3.35847100000000    0.28233300000000    3.84585700000000
H         3.34934800000000    1.07616400000000    4.40919500000000
O         3.46184400000000   -3.76306900000000    1.25482700000000
H         3.58993200000000   -3.65381200000000    2.21611600000000
O         2.96976200000000    2.72668300000000    3.32649300000000
H         3.44538600000000    3.43456300000000    2.85213000000000
O         3.93897500000000    3.23705500000000    1.10819800000000
H         4.82636200000000    2.88702700000000    0.87870800000000
O         2.88176500000000   -2.39823900000000    3.22652500000000
H         3.21442100000000   -1.64223700000000    3.73562200000000
O         4.40445800000000    1.98556900000000   -1.86069500000000
H         4.11646200000000    2.25744600000000   -2.74695100000000
O         4.50193300000000   -0.14248100000000   -2.89414800000000
H         4.51645500000000   -0.91869000000000   -3.47181800000000
O         3.79283500000000   -2.46093600000000   -2.29135100000000
H         4.55531800000000   -2.74578600000000   -1.75502600000000
O         0.12566100000000   -4.83890100000000    1.63088800000000
H        -0.30390700000000   -5.54233400000000    1.11184400000000
O         1.85752300000000   -4.69321400000000   -0.35357800000000
H         2.59076900000000   -4.94808700000000    0.23690700000000
O        -3.72119100000000   -3.32001300000000    2.03737300000000
H        -4.51385400000000   -2.80268800000000    2.26307000000000
O        -1.69359400000000   -3.47022000000000    3.42474100000000
H        -2.46641300000000   -3.99391000000000    3.14177000000000
O         1.00598000000000    0.74596700000000    4.96387100000000
H         1.14174500000000   -0.06102600000000    5.48917500000000
O         0.64823200000000   -1.72190700000000    4.75806100000000
H         0.49235600000000   -2.66892500000000    4.64954000000000
O        -1.93525700000000   -1.24778700000000    4.64033900000000
H        -1.97175500000000   -2.20147100000000    4.83760400000000
O        -4.72910600000000   -1.05975200000000    1.92818300000000
H        -4.99278900000000   -0.14289100000000    2.11438000000000
O         2.40024200000000    3.10874900000000   -3.32625800000000
H         2.00074600000000    3.98670000000000   -3.48069300000000
O         1.70047500000000    4.92644500000000    0.14653000000000
H         1.81292000000000    5.22423300000000    1.06765900000000
O         0.24721000000000    4.36052600000000   -3.11445400000000
H        -0.24675100000000    4.14994800000000   -3.93601100000000
O        -0.61484500000000    5.03679500000000   -0.93686800000000
H         0.14159700000000    5.59849900000000   -1.17083000000000
O        -4.44112700000000    1.69318300000000    2.07246900000000
H        -4.32026800000000    2.44431600000000    2.69871000000000
O        -2.86470000000000    3.31119200000000    3.05710700000000
H        -2.55717800000000    3.16156600000000    3.97185400000000
O        -1.58950900000000    1.76961200000000    4.49071900000000
H        -0.85680000000000    1.42027100000000    5.02735000000000
O         0.56985200000000    4.60928200000000    2.41995500000000
H        -0.27065800000000    5.11364600000000    2.43795600000000
O        -4.28460200000000    2.80742000000000   -0.21514500000000
H        -4.99783100000000    2.66454100000000    0.43080300000000
O        -4.85421600000000   -1.65529200000000   -0.61077300000000
H        -5.58157700000000   -1.00969200000000   -0.69700100000000
O        -5.23912000000000    0.70175700000000   -1.07519300000000
H        -5.36373000000000    1.01256500000000   -1.99867900000000
O        -3.11331400000000   -0.93840000000000   -4.04218800000000
H        -2.67475900000000   -1.74491800000000   -4.36354800000000
O        -4.18315200000000    1.09199100000000   -3.25232000000000
H        -4.19743700000000    0.40069800000000   -3.93984700000000
O        -1.23684400000000    2.70292500000000   -4.23990100000000
H        -2.13777400000000    3.07255000000000   -4.21918200000000
O         0.02822800000000   -4.53703400000000   -2.29661200000000
H         0.65315100000000   -5.03397600000000   -1.74133800000000
O        -1.80622400000000   -3.34831100000000   -3.49851400000000
H        -1.31797300000000   -4.18588100000000   -3.55956900000000
O        -0.37418600000000   -1.80552900000000   -4.88351900000000
H         0.33132400000000   -2.42574800000000   -5.12938900000000
O         1.91456900000000   -2.32864700000000   -4.11737800000000
H         2.73387200000000   -2.67041800000000   -3.72293300000000
O         4.76198700000000   -0.66422100000000    1.69049100000000
H         4.75859800000000   -0.03988200000000    2.43162100000000
O        -1.76053000000000    4.65848800000000    1.41574400000000
H        -1.61579100000000    5.11055300000000    0.56137600000000
O        -3.07647200000000    3.19458700000000   -2.62323600000000
H        -3.79551500000000    3.33722100000000   -1.98577200000000
O        -1.37790500000000   -5.14401000000000   -0.32779200000000
H        -2.32037200000000   -5.21391600000000   -0.55459600000000
O        -3.41244800000000   -3.85535300000000   -0.35746200000000
H        -4.24206500000000   -3.35400000000000   -0.43482500000000
O         2.68144800000000    0.12941800000000   -4.53140500000000
H         1.99564500000000    0.12523800000000   -5.20941500000000
