148
 energy: -329.930870889497 gnorm: 0.000238567614 xtb: 6.4.1 (a3dbbd7)
C         3.57079700000000   -0.18909700000000   -1.68780300000000
C         2.55459500000000   -0.65527600000000   -2.88093600000000
C         1.90163500000000   -1.96337600000000   -2.35384500000000
C         3.48371100000000   -1.34696000000000   -0.62987900000000
C         2.20355500000000   -2.04075800000000   -0.90821700000000
C         3.77645100000000   -1.05738500000000    0.86283600000000
C         3.57795100000000    0.42267600000000    1.36594700000000
C         3.35248400000000    1.26565900000000   -1.18273600000000
C         3.63790800000000    1.60560300000000    0.32189600000000
C         2.00293900000000    1.86888500000000   -1.42747800000000
C         1.50959800000000    0.40860600000000   -3.37625900000000
C         1.21849200000000    1.49814900000000   -2.40648700000000
C         0.04494000000000   -0.04922800000000   -3.75376900000000
C         0.41477200000000   -2.01455100000000   -2.34814800000000
C        -0.42531800000000   -1.14339800000000   -2.86987100000000
C        -0.23445100000000   -3.25949600000000   -1.84011300000000
C         1.84241100000000   -3.29576600000000   -0.21590400000000
C         0.33659100000000   -3.70675200000000   -0.48172200000000
C         2.84952600000000   -1.92835200000000    1.85653000000000
C         1.92447100000000   -3.08743400000000    1.32528600000000
C         2.33859000000000    0.33901500000000    2.20784900000000
C         1.96623900000000   -0.88851100000000    2.50683200000000
C         1.85026400000000    1.59420300000000    2.83375100000000
C         2.60069600000000    2.80418800000000    0.65764600000000
C         1.91278800000000    3.17665700000000   -0.70134100000000
C         1.54475700000000    2.44543600000000    1.63783400000000
C         0.48072200000000    3.83721200000000   -0.71815600000000
C         0.07508300000000    2.31134400000000   -2.90574100000000
C        -0.86991600000000    1.22572000000000   -3.60446700000000
C        -0.50846600000000    3.21456900000000   -1.81093500000000
C        -2.23277300000000    0.98290900000000   -2.84843900000000
C        -1.84533900000000   -1.64523000000000   -2.88245800000000
C        -1.79035900000000   -2.92687000000000   -1.90866500000000
C        -2.87093700000000   -0.47561500000000   -2.65606500000000
C        -2.52487900000000   -2.71772500000000   -0.55394400000000
C        -0.35435300000000   -3.07951900000000    0.68722600000000
C         0.47547000000000   -2.79214200000000    1.67733300000000
C        -1.82639200000000   -3.21301900000000    0.75923800000000
C         0.94568500000000   -1.20523900000000    3.55664200000000
C         0.02041000000000   -2.38830100000000    3.03494000000000
C         0.49854300000000    1.47621300000000    3.62704100000000
C        -0.02855500000000    0.00467800000000    3.80436600000000
C         0.27593300000000    2.80710900000000    1.59018100000000
C        -0.34227600000000    3.75805800000000    0.63201300000000
C        -0.46397400000000    2.48539600000000    2.85525500000000
C        -1.53253400000000    2.50948400000000   -0.98911500000000
C        -2.26709900000000    1.52586400000000   -1.44421800000000
C        -1.79800200000000    3.30567500000000    0.24222600000000
C        -3.53838000000000   -0.44675200000000   -1.21964200000000
C        -2.82352800000000   -1.29047900000000   -0.24154900000000
C        -3.50842700000000    1.05642200000000   -0.75816300000000
C        -2.46805800000000   -2.36694200000000    1.92071500000000
C        -1.44633800000000   -1.82031600000000    2.99246300000000
C        -1.17762500000000   -0.34978500000000    2.91165500000000
C        -3.30559700000000   -1.23719700000000    1.17169500000000
C        -1.89996900000000    1.99819200000000    2.57900200000000
C        -2.66924800000000    2.60931200000000    1.33394600000000
C        -3.60337400000000    1.37569600000000    0.77799700000000
C        -1.96209600000000    0.53180400000000    2.34517800000000
C        -3.27654400000000    0.18479300000000    1.75731200000000
O         4.86976400000000   -0.16855000000000   -2.20059700000000
H         5.18841600000000   -1.08252600000000   -2.24875000000000
O         5.10644000000000   -1.43926900000000    1.08786300000000
H         5.55073800000000   -0.68345900000000    1.51387700000000
O         2.70622600000000   -4.34324000000000   -0.62313900000000
H         2.57437400000000   -5.05711600000000    0.02566700000000
O         3.35774500000000   -0.95582400000000   -3.98550200000000
H         3.30366400000000   -1.92032900000000   -4.12056800000000
O         2.31226900000000   -4.31290400000000    1.87988300000000
H         2.79665000000000   -4.10662000000000    2.70026900000000
O         3.68068200000000   -2.48767800000000    2.83952300000000
H         4.60028300000000   -2.35469300000000    2.52867300000000
O         2.41027000000000   -3.06152800000000   -3.10708100000000
H         2.65036900000000   -3.77500300000000   -2.49425100000000
O         4.64664200000000    0.64080400000000    2.27537500000000
H         4.33761600000000    1.28674300000000    2.93713700000000
O         4.93265600000000    2.12671900000000    0.36510000000000
H         4.93747500000000    2.83412100000000    1.03366700000000
O         4.19214100000000    2.09528100000000   -1.97319700000000
H         5.04730400000000    1.64186500000000   -2.05868000000000
O         0.01572200000000   -0.54869400000000   -5.05636000000000
H        -0.29701300000000    0.17671500000000   -5.62621400000000
O         2.03413300000000    1.04928700000000   -4.52116100000000
H         2.72925500000000    0.45875000000000   -4.86696400000000
O        -3.87947500000000   -0.62034100000000   -3.61655200000000
H        -4.70762200000000   -0.79730600000000   -3.13098300000000
O        -2.07837900000000   -2.18370900000000   -4.16611100000000
H        -2.82549700000000   -1.68176100000000   -4.54874900000000
O         0.20027300000000   -5.10564800000000   -0.35582000000000
H         0.24947900000000   -5.47120600000000   -1.25607000000000
O         0.04016100000000   -4.32477000000000   -2.72952400000000
H        -0.00717500000000   -3.99280400000000   -3.63494700000000
O        -2.42087600000000   -4.00160000000000   -2.54226100000000
H        -2.46336300000000   -3.76482900000000   -3.49246100000000
O        -4.87902900000000   -0.86965500000000   -1.38098800000000
H        -5.14928300000000   -1.32248300000000   -0.56046900000000
O         2.86967400000000    2.13635700000000    3.63901900000000
H         2.46316000000000    2.29885200000000    4.51237600000000
O         1.58198400000000   -1.55708000000000    4.74552600000000
H         1.43264700000000   -2.51256900000000    4.87243300000000
O         0.73332300000000    1.97521900000000    4.91863200000000
H         0.21585900000000    2.80161700000000    4.98807900000000
O        -0.53362900000000   -0.12608100000000    5.11743800000000
H         0.04368900000000    0.39575000000000    5.69929700000000
O        -4.67914200000000   -1.61687300000000    1.19733200000000
H        -4.69726300000000   -2.47649400000000    1.67463900000000
O        -3.39273900000000   -3.17994400000000    2.58159500000000
H        -3.16134900000000   -4.10304400000000    2.37114700000000
O        -2.12945700000000   -4.57105700000000    0.99101200000000
H        -1.41790700000000   -5.10905500000000    0.59892400000000
O         0.09811700000000   -3.47323900000000    3.91256700000000
H        -0.73744000000000   -3.44941300000000    4.42686900000000
O        -4.18839200000000    0.24531300000000    2.83219300000000
H        -4.97251800000000   -0.26168600000000    2.55712000000000
O        -4.58069900000000    1.71496300000000   -1.40220100000000
H        -5.29170500000000    1.78634400000000   -0.73549400000000
O        -4.93987800000000    1.73229000000000    1.00218900000000
H        -4.91048900000000    2.54343800000000    1.55724700000000
O        -2.52744100000000    4.45856300000000   -0.14278200000000
H        -2.18997600000000    4.75696200000000   -1.00621100000000
O        -3.54817300000000    3.56087300000000    1.86493400000000
H        -3.52804100000000    4.33540000000000    1.27501200000000
O        -0.51203200000000    3.64543900000000    3.65348900000000
H        -0.80740900000000    4.38545900000000    3.10109500000000
O         0.55271700000000    3.20321900000000   -3.88729700000000
H         1.07841500000000    2.68554200000000   -4.52086000000000
O        -1.18138800000000    4.28575300000000   -2.44068100000000
H        -0.68691800000000    4.48485400000000   -3.25326500000000
O         0.61169600000000    5.20402800000000   -0.98991900000000
H         1.41566800000000    5.31845400000000   -1.52290900000000
O         2.75465000000000    4.12487700000000   -1.34007200000000
H         3.47934900000000    3.62156700000000   -1.76960100000000
O         4.46516000000000   -2.28667200000000   -1.09264500000000
H         4.39949600000000   -3.09935800000000   -0.57061400000000
O         3.32231300000000    3.89386200000000    1.16043700000000
H         3.45199300000000    4.50651900000000    0.41144300000000
O        -0.39374700000000    5.00683800000000    1.27341200000000
H        -0.16372300000000    5.67772900000000    0.60727800000000
O        -2.02630000000000   -2.12664800000000    4.24115500000000
H        -1.75983400000000   -1.43383300000000    4.87254500000000
O        -2.60851000000000    2.28506600000000    3.75525700000000
H        -3.43119500000000    1.77016200000000    3.75293300000000
O        -1.13106700000000    1.65979000000000   -4.90639800000000
H        -2.02864700000000    2.03385000000000   -4.90979800000000
O        -3.15237800000000    1.74983700000000   -3.59558200000000
H        -3.96591200000000    1.84660200000000   -3.06981000000000
O        -3.78560500000000   -3.36144700000000   -0.61388300000000
H        -3.71617500000000   -4.05544200000000   -1.29408500000000
