156
 energy: -347.974037572335 gnorm: 0.000135276012 xtb: 6.4.1 (a3dbbd7)
C        -3.33505496840433   -2.01566620667333    0.20727468901150
C        -3.65889977646221   -0.59455167638085   -0.46801187692577
C        -3.62324533090996    0.46597868718759    0.67612956075634
C        -2.85604018179768   -1.61625432088502    1.65103311259741
C        -2.58704346760174   -0.13817521774880    1.57922972103530
C        -1.83668384939678   -2.52238146598509    2.38484358083575
C        -0.83102566544337   -3.33887204348717    1.51789136301962
C        -2.44240407610122   -3.02007352798984   -0.66540473687803
C        -1.21116172557413   -3.75931397026767    0.06595669443843
C        -1.79762740699788   -2.50003608837023   -2.01719950719391
C        -2.62223434360842   -0.19985227502035   -1.43754508327110
C        -2.34221653078383   -1.16628123181767   -2.52775672066470
C        -2.77657205584688    1.13447292879143   -2.09434066743832
C        -3.36315237395960    1.98585600764200    0.31967325518166
C        -2.85870665410622    2.36873744662963   -1.16196780979033
C        -2.27593726068459    2.65211532558377    1.26892634076640
C        -2.35352737634956    0.52521112938419    2.88453695081670
C        -1.96063467916849    2.05378805940817    2.68693770153669
C        -0.92721838035972   -1.71662995967298    3.45803700651705
C        -1.13698141636573   -0.15761063280495    3.59061922019012
C         0.44965033713449   -2.59118360834396    1.67672666483136
C         0.57431208750239   -2.12634599625403    3.08422334350941
C         1.47087333613949   -2.66728559031568    0.86331429954238
C         0.02248058946794   -3.64297597714241   -0.94814810295308
C        -0.33009606091273   -2.50786090044137   -1.81990679810148
C         1.44244648162451   -3.47907134828460   -0.38088400879111
C         0.50720458100565   -2.22308633637976   -3.00065957014600
C        -1.43643602113047   -0.41228738329131   -3.56973941233716
C        -1.72545597356992    1.15870168702437   -3.25802824868066
C         0.07467208369318   -0.83671867372839   -3.61155229586870
C        -0.45309148826774    2.02180067632680   -3.06723039262908
C        -1.55531355938343    3.19534126438320   -0.95578879869966
C        -1.06058704421753    2.78490864139388    0.39789993339106
C        -0.52027697723502    3.26112049166313   -2.11993786394112
C         0.05081906114341    3.61705284671773    0.92378367502393
C        -0.42021544080891    2.12558487388376    3.06612049467283
C        -0.01919001649171    0.67908190103119    3.04105496568256
C         0.56229077213475    3.09091455875362    2.31397388632954
C         1.69797533207368   -1.08626510730849    3.21868391503232
C         1.20963582661907    0.26537996305787    2.86440542257775
C         2.88004312480171   -2.26741556988960    1.15472747755091
C         3.03061976021929   -1.24897078463357    2.34123088325523
C         2.53860213429398   -2.80104415547378   -1.31083256180043
C         2.06604303540426   -2.09755521324221   -2.67179731369986
C         3.35665750883104   -1.86062723185029   -0.28212808851548
C         1.00852745679225    0.06653671986515   -2.88587891513650
C         0.77979266756581    1.32447970576086   -2.61024270896783
C         2.36022090400607   -0.55086288375758   -2.84863427668734
C         0.99634556782863    3.49517955382039   -1.59396582738870
C         1.25997046897770    3.53906133261433   -0.05549679405971
C         1.83802985895380    2.33969891242526   -2.28669902219703
C         1.97919460955885    2.46267269414829    1.97025029334671
C         2.36420567663462    1.16911427948362    2.68641102114006
C         3.46261340757309    0.27983239915544    2.00465919459032
C         1.97722608439392    2.33308030602650    0.48279114509062
C         3.09710749741714   -0.41997394978117   -0.46320319751935
C         3.27551434163422    0.13432225735121   -1.83131322648480
C         3.13740244141434    1.71089447279040   -1.64468265170083
C         3.72382894270715    0.53663533512193    0.49054995020627
C         3.27365058640627    1.92011820695378   -0.10357310049777
O        -4.57885727027918   -2.62823678284379    0.40798051796351
H        -4.63760306916020   -3.35010506673391   -0.25303981163752
O        -2.56186157963291   -3.50527555648133    3.08734659247600
H        -3.47278164783249   -3.15959930501440    3.17780241665848
O        -3.49711043584034    0.45195102877306    3.68584643460991
H        -3.53073605423202    1.28354086879119    4.19647143316712
O        -4.93355614694416   -0.64405070853129   -1.04006075857130
H        -5.46449614114593   -1.21995617560605   -0.45723295160229
O        -1.23703278280919    0.15725433201486    4.96611587807332
H        -1.32873002353255   -0.69133476286557    5.43914153123617
O        -1.20497412255344   -2.25546735391286    4.71722703400227
H        -1.78740366477135   -3.02976078625087    4.56620850341965
O        -4.87150801668828    0.40212708584523    1.33961031998503
H        -5.27071264350519    1.29391285574159    1.29463315330133
O        -0.54824501309908   -4.53498481134041    2.23314722079294
H        -1.33435170942407   -5.10034567500980    2.19795118109458
O        -1.55998729392755   -5.11772573481789    0.13497963888383
H        -1.07173259002807   -5.54029990763758   -0.61098400305260
O        -3.34204447499764   -4.02066504645735   -1.07093986906720
H        -3.02206416722967   -4.85962864932152   -0.67388135495676
O        -4.57674105312026    2.64089368768982    0.52927974637250
H        -4.77865102713799    3.13587711229220   -0.29091938745379
O        -3.82065411134218    3.21970448922926   -1.74177289882424
H        -3.43690240290816    4.11887986962129   -1.73119206275791
O        -2.03513745735224    4.54321917377885   -0.84368603971722
H        -1.29562684109114    5.12376963628919   -0.60941710357549
O        -0.89498347366333    4.34292974553108   -2.92192785164248
H        -0.18832052800468    5.01493268812010   -2.83925908722576
O         1.38843080564039    4.73414526303151   -2.10846423348288
H         1.98798672358674    4.55356751431994   -2.85736864468020
O         4.29522981168551    2.87713818130151    0.09501709694419
H         4.19351015441597    3.23835368238289    0.99348303182079
O         4.72454704456321   -2.11480304195510   -0.42640006968194
H         4.79857715947617   -3.04202527478748   -0.72442312102021
O         2.97740943127424   -0.31827555240342   -4.09444785904036
H         2.34636266367863   -0.57362597892958   -4.78918166163457
O         2.26309300297563    2.89185886859760   -3.53084311229196
H         3.23367273041642    2.74470026262043   -3.57222511361757
O         4.23768315557318    2.29761696249324   -2.28604473887254
H         4.71352931180808    2.81613276152262   -1.61018394197832
O         3.41558139227775   -3.83198121976489   -1.65926107352947
H         3.60118977734119   -3.72225723039126   -2.61718128451390
O         2.76399375811666   -2.73972391778600   -3.70680114533612
H         2.09756663832555   -3.22507693432157   -4.23243839731691
O         5.13381560799645    0.43536177902591    0.34467348187436
H         5.34118905969914    0.12362799923865   -0.55499872518175
O         4.64856548039889    0.54653036948140    2.70284354375613
H         5.36935710326431    0.52661189711030    2.04355811672603
O        -1.93677941585980   -0.69432153735470   -4.84523641476036
H        -2.50672524767756    0.06681432452605   -5.08524747199654
O        -2.43011977630751    1.67398876865486   -4.35789634486723
H        -1.81317206368451    2.24467393590522   -4.85042958113874
O         3.56678807723723   -3.46050280566224    1.48372132074698
H         4.07500489093947   -3.27212359013604    2.29416763397739
O         4.01755788029835   -1.77657340592170    3.17917588542302
H         4.59690149631509   -1.02498351178585    3.43008792721628
O        -2.67021876429120    2.77298136124206    3.64986710228488
H        -3.10340461933346    3.51330359605466    3.17241339855221
O        -0.36776354397865    4.97170757348067    1.07666699876278
H         0.14758405594307    5.33284432743784    1.82336955473983
O         0.78287760921864    4.22697162657669    3.10627480960903
H         0.53910662990950    3.98068348171734    4.01731682550186
O        -3.55921463965049   -1.52327812001303   -3.15628268135611
H        -4.16841909635946   -0.76443845232238   -3.10491437710505
O        -2.05798301514175   -3.46471904493951   -3.02502625944466
H        -2.92424685584098   -3.22877008599830   -3.40460577408208
O         2.97021206413191    3.42994978340061    2.33669476300861
H         3.19438675342110    3.24022767709052    3.26566421403150
O         2.09466053703426   -1.01695599744394    4.57143645607056
H         2.05446389374250   -1.92553281225423    4.91193772871945
O         0.39044502843306   -3.23631724721435   -3.97843275671497
H        -0.49802688143200   -3.63207940320764   -3.87949379269791
O        -3.98882036737834   -1.72371599794435    2.50509507824622
H        -4.63392924743661   -1.02503513271933    2.28525886419706
O         0.50173759232583   -0.81803915768036   -4.95917733842468
H        -0.30141713322255   -0.97396722263741   -5.49304456018699
O         0.98196134731478   -3.18954614255131    3.91148356346328
H         0.51135839935842   -3.98940957768356    3.61990738032007
O        -0.17669904889329    2.47369106413145   -4.38781206223321
H         0.73944515179747    2.79475479715870   -4.42436063006090
O         1.85437335725020   -4.79050404922070   -0.06705201354314
H         2.65739485454427   -4.72474971778835    0.47859499987601
O        -0.32785763331671    2.54686656434842    4.41244647738829
H        -0.73963397064113    1.85978062105818    4.96761116801017
O         2.80539774927463    1.56509252520880    3.97008883187694
H         2.78798144761913    0.78229322973036    4.54540602697220
O         2.08158020324824    4.67382409463386    0.12693179274505
H         2.38644665329251    4.68892191973249    1.04869919355790
O         4.60944528620703   -0.13077305993011   -2.22008878759747
H         4.61688067370202   -0.18156320967628   -3.19097468106001
O         0.03441370726088   -4.84091956514703   -1.71880480925104
H         0.85283850430375   -5.31344352965696   -1.47382798726357
O        -2.81420910174589    3.94790263979249    1.53930992097922
H        -2.09498260173788    4.60323566332767    1.46493165311315
O        -4.04367850265404    1.02509027978209   -2.72880803188088
H        -4.38061484981324    1.92510154306150   -2.87565996812964
