156
 energy: -347.985781487034 gnorm: 0.000301554111 xtb: 6.4.1 (a3dbbd7)
C         3.19949000000000   -1.37775800000000    1.86394700000000
C         3.13141500000000    0.20019900000000    2.30731300000000
C         3.35555900000000    0.98941400000000    0.97827400000000
C         3.44161400000000   -1.29811100000000    0.29527700000000
C         2.97901700000000    0.06274700000000   -0.12160200000000
C         3.01214700000000   -2.42950000000000   -0.68049800000000
C         1.89422800000000   -3.43586400000000   -0.18121500000000
C         2.07605100000000   -2.37141100000000    2.37978200000000
C         1.33342900000000   -3.24960300000000    1.27218000000000
C         0.86555400000000   -1.73217100000000    3.21842400000000
C         1.87402400000000    0.60297100000000    3.14162800000000
C         0.69908800000000   -0.28566500000000    2.97916300000000
C         1.23022300000000    2.01627000000000    2.90510800000000
C         2.63505300000000    2.35103700000000    0.87981600000000
C         1.27420200000000    2.35184500000000    1.46094600000000
C         2.49138500000000    2.91623900000000   -0.56826800000000
C         3.33534600000000    0.54550200000000   -1.47651100000000
C         2.60609600000000    1.89629800000000   -1.74372100000000
C         2.48917800000000   -1.87927100000000   -2.08819000000000
C         2.85522700000000   -0.44589600000000   -2.59452800000000
C         0.77947600000000   -3.38451500000000   -1.31575800000000
C         1.02100100000000   -2.11496700000000   -2.03795800000000
C        -0.68931200000000   -3.54748600000000   -0.87445100000000
C        -0.08481200000000   -2.76342200000000    1.35991600000000
C        -0.43071400000000   -2.48458000000000    2.78188800000000
C        -0.98239500000000   -2.87467100000000    0.41621500000000
C        -1.83472500000000   -1.80679600000000    3.01828700000000
C        -0.46669400000000    0.36849300000000    3.64592000000000
C        -0.25958700000000    1.92312800000000    3.38933400000000
C        -1.80626000000000   -0.25556500000000    3.24965400000000
C        -1.33767400000000    2.56486300000000    2.44040000000000
C         0.58047000000000    3.58347800000000    0.96228200000000
C         1.10478500000000    3.74287500000000   -0.53897600000000
C        -0.95072700000000    3.61772000000000    1.30954300000000
C         0.01308300000000    3.40120600000000   -1.59588900000000
C         1.30657500000000    1.40562500000000   -2.30873100000000
C         1.64793500000000    0.31309400000000   -3.29310900000000
C         0.39231700000000    2.46202100000000   -2.77867300000000
C         0.19483000000000   -1.89919100000000   -3.25067900000000
C         0.41958400000000   -0.45714500000000   -3.86476700000000
C        -1.81412100000000   -3.02425600000000   -1.83899300000000
C        -1.33385000000000   -1.99322500000000   -2.91991200000000
C        -2.45583000000000   -2.83715600000000    0.62222900000000
C        -2.95700700000000   -1.99587100000000    1.82738600000000
C        -3.00764200000000   -2.53011400000000   -0.81762400000000
C        -2.34985300000000    0.32149000000000    1.99615700000000
C        -2.15208400000000    1.57016100000000    1.66163000000000
C        -3.46520100000000   -0.53950600000000    1.51650700000000
C        -1.91350100000000    3.29933300000000    0.09846800000000
C        -1.17549500000000    2.69161100000000   -1.02688500000000
C        -2.98129800000000    2.28242700000000    0.64876700000000
C        -0.96818400000000    1.84927900000000   -3.29999500000000
C        -0.94902200000000    0.31494700000000   -3.63291200000000
C        -1.61886900000000   -0.56208200000000   -2.61914900000000
C        -2.01913200000000    2.24271900000000   -2.17507800000000
C        -3.50023200000000   -1.08278700000000   -1.08448200000000
C        -4.02236300000000   -0.20323800000000    0.10893400000000
C        -3.74851100000000    1.35330800000000   -0.36013100000000
C        -2.53651800000000   -0.18093700000000   -1.77048900000000
C        -3.07411600000000    1.20090700000000   -1.76875500000000
O         4.36935300000000   -1.87965900000000    2.44740200000000
H         5.11930000000000   -1.59919400000000    1.89799300000000
O         4.17129800000000   -3.17183000000000   -0.95816700000000
H         3.99700100000000   -4.08128400000000   -0.63098900000000
O         4.73592300000000    0.74182300000000   -1.61600200000000
H         4.83865300000000    1.33361800000000   -2.38606900000000
O         4.21829300000000    0.44305200000000    3.15347800000000
H         4.92000000000000    0.83779800000000    2.60178500000000
O         3.90172700000000   -0.55123700000000   -3.51843800000000
H         3.84888100000000   -1.46753700000000   -3.86744900000000
O         3.00311100000000   -2.76657000000000   -3.07575300000000
H         3.66870600000000   -3.32250000000000   -2.61123800000000
O         4.74698400000000    1.29831300000000    0.94608000000000
H         5.05622600000000    1.25658200000000    0.02239400000000
O         2.49945500000000   -4.69823600000000   -0.24506700000000
H         2.09016200000000   -5.24193900000000    0.45421500000000
O         1.28766800000000   -4.57540600000000    1.76367900000000
H         0.77467800000000   -4.56472300000000    2.59870100000000
O         2.64558000000000   -3.27672800000000    3.27491700000000
H         3.61129100000000   -3.22098300000000    3.20226100000000
O         1.92796700000000    2.97358700000000    3.67630000000000
H         1.33865400000000    3.20971200000000    4.41930600000000
O         2.23538700000000    0.50920100000000    4.51690300000000
H         3.19619500000000    0.68484700000000    4.55604300000000
O        -1.24985400000000    4.89690400000000    1.79299700000000
H        -1.87909100000000    5.29375500000000    1.15926100000000
O         1.16751200000000    4.66994100000000    1.66964600000000
H         0.42505700000000    5.17595000000000    2.06181100000000
O         3.33646300000000    2.53315000000000   -2.78494500000000
H         3.57372700000000    3.42523500000000   -2.47589000000000
O         3.52641300000000    3.83683700000000   -0.77916600000000
H         3.86831800000000    4.07230900000000    0.10618300000000
O         1.43534100000000    5.08389100000000   -0.74975800000000
H         1.70713200000000    5.43451700000000    0.12124800000000
O        -2.54484700000000    4.51138100000000   -0.25983200000000
H        -2.69563900000000    4.49345700000000   -1.22295400000000
O        -0.90076600000000   -4.92907500000000   -0.66119700000000
H        -0.31030600000000   -5.38772800000000   -1.29151500000000
O         0.51978900000000   -2.87441700000000   -4.21864700000000
H         0.71722800000000   -2.38231600000000   -5.04325800000000
O        -2.30736000000000   -4.12251300000000   -2.55278900000000
H        -3.15795500000000   -4.36306600000000   -2.12369300000000
O        -2.01425600000000   -2.28238100000000   -4.12665200000000
H        -2.23053700000000   -3.23491700000000   -4.08785000000000
O        -2.76919800000000    3.35218700000000   -2.66148500000000
H        -2.42182100000000    3.50949600000000   -3.57093500000000
O        -1.31140900000000    2.54276000000000   -4.46137500000000
H        -0.52811900000000    3.10145000000000   -4.67530800000000
O         0.95154700000000    3.26261600000000   -3.79932400000000
H         1.62121500000000    2.71728300000000   -4.25776500000000
O         0.61847900000000   -0.62232600000000   -5.23808500000000
H        -0.16552900000000   -0.21939800000000   -5.67220700000000
O        -4.09525100000000    1.21802800000000   -2.74796200000000
H        -4.24647500000000    2.15539500000000   -2.96566700000000
O        -3.94370000000000    3.02651600000000    1.36663200000000
H        -4.71462400000000    3.11404100000000    0.77331500000000
O        -4.99980100000000    1.95121600000000   -0.55392600000000
H        -5.66082100000000    1.23056000000000   -0.44759900000000
O        -4.55997900000000   -0.26480600000000    2.37707700000000
H        -4.22217500000000   -0.20162400000000    3.29012200000000
O        -5.41156900000000   -0.37942900000000    0.12961100000000
H        -5.67392300000000   -0.44832400000000    1.06669600000000
O        -4.08540600000000   -3.40465200000000   -1.00295700000000
H        -4.77933800000000   -2.90912600000000   -1.47446900000000
O        -0.39342200000000    0.15199200000000    5.03994000000000
H         0.46865700000000    0.46548200000000    5.35504100000000
O        -2.74756400000000    0.06291900000000    4.25713000000000
H        -2.34228300000000   -0.20616500000000    5.09818400000000
O        -2.34385700000000   -2.38885100000000    4.17729900000000
H        -3.25292900000000   -2.68593700000000    3.96586200000000
O        -0.46386000000000   -3.72374300000000    3.45380100000000
H        -0.37229800000000   -3.52279200000000    4.39932600000000
O         4.87101900000000   -1.23186200000000    0.20371700000000
H         5.12917500000000   -1.07263100000000   -0.71527000000000
O        -1.68021100000000    0.22229800000000   -4.83787600000000
H        -2.11527800000000   -0.64962100000000   -4.86038500000000
O        -4.57268300000000   -1.26408800000000   -1.99780500000000
H        -4.76958900000000   -0.40790300000000   -2.41825700000000
O        -0.29969300000000    2.57877800000000    4.62502000000000
H        -1.19775300000000    2.94143900000000    4.72252200000000
O        -2.22353800000000    3.20279200000000    3.33461400000000
H        -3.04649100000000    3.40271800000000    2.85456200000000
O        -4.04991200000000   -2.65723600000000    2.39755100000000
H        -4.02016800000000   -3.57827900000000    2.07896100000000
O         1.04502900000000   -2.01104100000000    4.58271000000000
H         1.80316800000000   -1.50361400000000    4.90610600000000
O        -2.83832200000000   -4.16044800000000    0.95890100000000
H        -2.30783000000000   -4.78328600000000    0.43154100000000
O         3.46110600000000    3.27652100000000    1.58137100000000
H         3.08569700000000    3.43326100000000    2.46692300000000
O         1.04909200000000   -4.49305600000000   -2.16673000000000
H         0.96566100000000   -4.20287700000000   -3.09323900000000
O        -0.49334200000000    4.60046700000000   -2.14209400000000
H         0.18377300000000    5.28620900000000   -2.00660900000000
O         2.18598800000000    0.98655900000000   -4.42317300000000
H         3.10071200000000    0.65885500000000   -4.53701200000000
