4
Lattice="3.6 0.0 0.0 0.0 3.6 0.0 0.0 0.0 3.6" Properties=species:S:1:pos:R:3:forces:R:3 energy=-14.83606176 stress="-0.026267328741188433 -2.4966036503533035e-07 4.369056388118281e-08 -2.4966036503533035e-07 -0.02626432033378976 5.492528030777268e-07 4.369056388118281e-08 5.492528030777268e-07 -0.02625501424368307" free_energy=-14.83555243 pbc="T T T"
Cu       0.00000000       0.00000000       0.00000000       0.00000400       0.00000300       0.00000800
Cu       0.00000000       1.80000000       1.80000000       0.00000700       0.00000600      -0.00000400
Cu       1.80000000       0.00000000       1.80000000      -0.00000300      -0.00000900       0.00000300
Cu       1.80000000       1.80000000       0.00000000      -0.00000900      -0.00000000      -0.00000700
