136
 energy: -302.493198822060 gnorm: 0.000213488455 xtb: 6.4.1 (a3dbbd7)
C        -1.78118900000000   -1.36217300000000    2.99679700000000
C        -0.20488700000000   -1.41304900000000    3.21854900000000
C         0.30911300000000   -2.61535400000000    2.38534900000000
C        -2.02979100000000   -2.36973600000000    1.78407100000000
C        -0.65770400000000   -2.64346600000000    1.24796300000000
C        -3.14785100000000   -2.09544600000000    0.72810300000000
C        -3.64221400000000   -0.61514600000000    0.55538900000000
C        -2.38978900000000    0.10283200000000    2.92663800000000
C        -3.26173600000000    0.45337300000000    1.63283300000000
C        -1.40028800000000    1.38040100000000    3.02356300000000
C         0.52647800000000   -0.18580600000000    2.82623000000000
C         0.07821900000000    1.12434000000000    3.38315600000000
C         1.76891400000000   -0.15382700000000    2.37654700000000
C         1.77902600000000   -2.60064900000000    1.83147300000000
C         2.64048400000000   -1.31744600000000    2.08327600000000
C         1.75502400000000   -2.67374600000000    0.31681900000000
C        -0.51508500000000   -3.64607200000000    0.16135400000000
C         0.94216700000000   -3.69637000000000   -0.40852000000000
C        -2.70665300000000   -2.51673600000000   -0.75569000000000
C        -1.30926700000000   -3.01647300000000   -0.93807500000000
C        -3.14356100000000   -0.19836700000000   -0.81009500000000
C        -2.72610100000000   -1.21952500000000   -1.53041000000000
C        -3.43492900000000    1.16306100000000   -1.34829000000000
C        -2.49687600000000    1.55232200000000    0.96120400000000
C        -1.50514100000000    2.03628100000000    1.68461000000000
C        -2.95580300000000    2.21538200000000   -0.29353300000000
C        -0.79403400000000    3.32183200000000    1.42436900000000
C         1.16836900000000    2.17531800000000    2.86626600000000
C         2.39155600000000    1.19733800000000    2.47221100000000
C         0.73935900000000    3.20443500000000    1.75207300000000
C         3.17683200000000    1.50352400000000    1.18156600000000
C         3.47524900000000   -1.14041500000000    0.77496300000000
C         2.62029600000000   -1.83877700000000   -0.24032900000000
C         3.93293100000000    0.31115500000000    0.42427500000000
C         3.06218000000000   -1.88352500000000   -1.65218800000000
C         0.80771600000000   -3.38009800000000   -1.94783700000000
C        -0.59834000000000   -2.79933700000000   -2.03640900000000
C         1.92274400000000   -2.44931600000000   -2.59349300000000
C        -2.39718500000000   -1.20897800000000   -2.98610900000000
C        -1.08798400000000   -2.06393600000000   -3.25180500000000
C        -2.62211200000000    1.47956700000000   -2.65469200000000
C        -2.08622500000000    0.24572900000000   -3.50555900000000
C        -1.71034200000000    2.79029700000000   -0.89482100000000
C        -0.88305800000000    3.75020400000000   -0.11709100000000
C        -1.49288000000000    2.36534700000000   -2.12417300000000
C         1.26767500000000    2.91403500000000    0.39243900000000
C         2.28118900000000    2.06299800000000    0.13387300000000
C         0.60069800000000    3.77490600000000   -0.63569300000000
C         3.76456000000000    0.70024500000000   -1.12989600000000
C         3.39467700000000   -0.43387600000000   -2.19601400000000
C         2.70773000000000    1.75966200000000   -1.12475700000000
C         1.28698800000000   -1.17668900000000   -3.07869800000000
C        -0.03556600000000   -1.00623900000000   -3.42162100000000
C        -0.58243500000000    0.26312300000000   -3.50054800000000
C         2.09523600000000   -0.07343500000000   -2.86518800000000
C        -0.29651100000000    2.71751100000000   -2.95182100000000
C         0.89706700000000    3.39787900000000   -2.14502100000000
C         2.15423100000000    2.40604900000000   -2.34657500000000
C         0.22485000000000    1.35633500000000   -3.30950300000000
C         1.56096900000000    1.18902700000000   -3.00246400000000
O        -2.31716000000000   -2.00486300000000    4.12663300000000
H        -2.95894100000000   -1.38590900000000    4.52755500000000
O        -5.05333800000000   -0.67334600000000    0.48026000000000
H        -5.34114200000000   -0.09623600000000   -0.24725900000000
O         0.07246300000000   -1.58261900000000    4.58893100000000
H        -0.64276000000000   -2.14781600000000    4.94062200000000
O        -4.44301800000000    1.07554100000000    2.08117700000000
H        -5.16006500000000    0.42017400000000    1.98967100000000
O        -3.25950200000000    0.17617100000000    4.02219700000000
H        -3.24377300000000    1.10249300000000    4.33159100000000
O         0.12610400000000   -3.77922600000000    3.18139300000000
H         0.94929600000000   -4.30014000000000    3.09162500000000
O        -4.28752600000000   -2.84109700000000    1.04697000000000
H        -4.06433100000000   -3.44015900000000    1.77880400000000
O        -0.90422200000000   -4.96483200000000    0.49705600000000
H        -1.68433800000000   -4.90405000000000    1.07138400000000
O         2.45959800000000   -3.71473000000000    2.34665000000000
H         3.06478800000000   -3.37918300000000    3.03352800000000
O         3.51951300000000   -1.50599700000000    3.17151800000000
H         4.38471500000000   -1.72588700000000    2.76925600000000
O         4.61953700000000   -1.94531500000000    0.97850300000000
H         4.95981400000000   -2.22035900000000    0.11266200000000
O         1.50396700000000   -4.96963400000000   -0.25528700000000
H         0.85367400000000   -5.50491100000000    0.23429800000000
O         4.20671700000000   -2.68584700000000   -1.69610100000000
H         4.39702500000000   -2.82147900000000   -2.64066900000000
O         5.27704300000000    0.34882700000000    0.77540600000000
H         5.58716300000000    1.25743100000000    0.63533300000000
O         2.56187600000000   -3.13011300000000   -3.63673000000000
H         2.12284200000000   -3.99875900000000   -3.71685800000000
O         0.81854400000000   -4.60283800000000   -2.64990700000000
H         1.20063700000000   -5.25670600000000   -2.02692300000000
O        -4.81827300000000    1.25155700000000   -1.56681600000000
H        -4.92926400000000    1.84592800000000   -2.33159900000000
O        -3.49232400000000   -1.70129500000000   -3.70775200000000
H        -3.63278600000000   -2.62063100000000   -3.43830500000000
O        -3.61451400000000   -3.44212700000000   -1.28927800000000
H        -4.36633700000000   -3.47324500000000   -0.66493400000000
O        -1.31570400000000   -2.90801400000000   -4.34426000000000
H        -0.61278800000000   -3.56905000000000   -4.37179700000000
O        -3.46927700000000    2.25393700000000   -3.45646000000000
H        -3.22246600000000    2.06868200000000   -4.38172300000000
O        -2.56879100000000    0.38022500000000   -4.81522300000000
H        -3.15644200000000   -0.37689600000000   -4.98087000000000
O        -1.44473300000000    5.03693600000000   -0.19357200000000
H        -2.39797800000000    4.93340200000000   -0.33474900000000
O        -0.68535900000000    3.48180300000000   -4.05510100000000
H        -0.13234400000000    4.28066600000000   -4.06521600000000
O        -1.39591700000000    4.29671900000000    2.23368500000000
H        -1.39745300000000    5.12726400000000    1.72143700000000
O         1.16979200000000    4.50367100000000    2.11985000000000
H         1.44525200000000    4.45681000000000    3.05300500000000
O         1.21039900000000    4.57448800000000   -2.84236800000000
H         1.31233000000000    5.27961200000000   -2.17518500000000
O         3.19348000000000    3.03008100000000   -3.05362000000000
H         2.81071100000000    3.81451100000000   -3.48426100000000
O         1.56254900000000    2.96151600000000    3.94650200000000
H         1.38168500000000    2.44647700000000    4.75466200000000
O         0.20580600000000    1.09176800000000    4.78975300000000
H         0.17615900000000    0.15979700000000    5.07708900000000
O        -3.89627800000000    3.22385600000000   -0.02711100000000
H        -4.58767200000000    2.84299600000000    0.53402900000000
O        -1.95792000000000    2.24020300000000    3.99590200000000
H        -1.83835900000000    3.15757300000000    3.70105800000000
O         4.42832400000000   -0.55936500000000   -3.12476200000000
H         5.18664100000000   -0.04812100000000   -2.78403800000000
O         3.29623300000000    1.23909000000000    3.55582700000000
H         3.60899500000000    0.33383200000000    3.72627500000000
O         4.13367100000000    2.49553500000000    1.46788800000000
H         4.27819400000000    2.46785700000000    2.43172500000000
O        -2.43810300000000   -3.62784100000000    2.36117700000000
H        -1.80738300000000   -3.83900700000000    3.07284600000000
O         4.99000700000000    1.28040600000000   -1.53639200000000
H         4.77759000000000    1.99957200000000   -2.15412800000000
O         1.11370500000000    5.08674600000000   -0.48546700000000
H         1.19820900000000    5.27064800000000    0.46721100000000
