136
 energy: -302.501147638419 gnorm: 0.000172730035 xtb: 6.4.1 (a3dbbd7)
C        -3.77041300000000    0.99121000000000    0.49092000000000
C        -3.24904100000000    0.41881400000000    1.91518200000000
C        -3.09168500000000   -1.12489700000000    1.70846600000000
C        -3.72313100000000   -0.26151200000000   -0.45936300000000
C        -2.83104500000000   -1.24338100000000    0.22622300000000
C        -3.46193400000000   -0.02946100000000   -1.98067200000000
C        -2.70563100000000    1.28977600000000   -2.44171100000000
C        -3.01073300000000    2.31063700000000    0.04044300000000
C        -2.66947700000000    2.53977700000000   -1.50783400000000
C        -1.70884500000000    2.48567800000000    0.72556800000000
C        -1.95293200000000    0.97561700000000    2.41012400000000
C        -1.58468100000000    2.42591200000000    2.18910200000000
C        -1.00043600000000    0.31746500000000    3.05403000000000
C        -2.02194800000000   -1.92005100000000    2.55924900000000
C        -1.01389100000000   -1.11200500000000    3.46135000000000
C        -1.10732200000000   -2.66123800000000    1.62555600000000
C        -2.69262900000000   -2.61021300000000   -0.35909700000000
C        -1.54590100000000   -3.37184800000000    0.38515400000000
C        -2.59431300000000   -1.22811600000000   -2.64530900000000
C        -2.24109400000000   -2.55921200000000   -1.86361900000000
C        -1.34419800000000    0.80178700000000   -2.77352600000000
C        -1.28791900000000   -0.56048200000000   -2.94716800000000
C        -0.21122000000000    1.55540000000000   -2.87362900000000
C        -1.22423200000000    3.25712100000000   -1.45696500000000
C        -0.70461800000000    2.85704700000000   -0.11763400000000
C        -0.12721300000000    2.99240600000000   -2.52450600000000
C         0.55970900000000    3.08565100000000    0.29837600000000
C        -0.11884500000000    2.58818100000000    2.76736400000000
C         0.19511700000000    1.18205600000000    3.37608000000000
C         0.95759400000000    3.13298000000000    1.73519500000000
C         1.34826700000000    0.49459000000000    2.74426000000000
C         0.39362400000000   -1.84376200000000    3.25969400000000
C         0.16404300000000   -2.62893300000000    1.99717800000000
C         1.64295800000000   -0.89987000000000    3.19426400000000
C         1.32844800000000   -3.22881400000000    1.26784500000000
C        -0.38638100000000   -3.26512900000000   -0.56189100000000
C        -0.73927300000000   -2.81256700000000   -1.74462200000000
C         0.97595000000000   -3.72481400000000   -0.18364400000000
C        -0.06537300000000   -1.15915900000000   -3.15586600000000
C         0.19230500000000   -2.60763900000000   -2.88957900000000
C         1.01261900000000    0.95641100000000   -3.06330300000000
C         1.09109200000000   -0.41002700000000   -3.15177300000000
C         1.42898900000000    3.16736200000000   -2.11607800000000
C         1.70164900000000    3.42630400000000   -0.58639500000000
C         2.14544400000000    1.85532000000000   -2.69172800000000
C         2.38420200000000    2.47119200000000    1.65774800000000
C         2.30642600000000    1.02310700000000    2.00541600000000
C         2.87418400000000    2.64567600000000    0.14761400000000
C         2.78974200000000   -1.32482600000000    2.19957100000000
C         2.25362300000000   -2.07004800000000    1.03250200000000
C         3.42884900000000    0.03950200000000    1.74758200000000
C         2.10726900000000   -3.08126400000000   -1.08220100000000
C         1.74847500000000   -2.67760800000000   -2.56006300000000
C         2.33131800000000   -1.23466600000000   -3.00932600000000
C         2.60542600000000   -1.93492100000000   -0.23469400000000
C         2.84568700000000    0.97889600000000   -1.69281900000000
C         3.14079600000000    1.29323200000000   -0.44286600000000
C         3.90927600000000    0.18534200000000    0.25694100000000
C         3.34066900000000   -0.40863200000000   -2.09418100000000
C         3.68956900000000   -1.03650800000000   -0.71326100000000
O        -5.10751000000000    1.36233200000000    0.63517600000000
H        -5.31739700000000    1.26619600000000    1.58966300000000
O        -4.69934000000000    0.02112000000000   -2.63013900000000
H        -5.36034400000000   -0.30315900000000   -1.97836900000000
O        -3.91565400000000   -3.30133500000000   -0.23741400000000
H        -3.69306400000000   -4.24257900000000   -0.14003500000000
O        -4.24387300000000    0.67309700000000    2.86898700000000
H        -4.72659900000000   -0.17475900000000    2.97166600000000
O        -2.77194900000000   -3.66287800000000   -2.55176700000000
H        -3.33310600000000   -3.30100900000000   -3.26590400000000
O        -3.25534100000000   -1.61330000000000   -3.82356600000000
H        -4.00671500000000   -0.99748000000000   -3.93426900000000
O        -4.36030600000000   -1.67347300000000    2.02380900000000
H        -4.18936200000000   -2.51753000000000    2.48968600000000
O        -3.23272100000000    1.68585700000000   -3.68482900000000
H        -4.13884100000000    1.99660700000000   -3.54462400000000
O        -3.61281200000000    3.41815500000000   -2.03283500000000
H        -3.47634800000000    4.27781500000000   -1.60628900000000
O        -3.81065900000000    3.40258600000000    0.46071600000000
H        -4.73969500000000    3.10871600000000    0.35932600000000
O        -2.69897900000000   -2.83980000000000    3.37598200000000
H        -2.62150800000000   -2.49418500000000    4.28956800000000
O        -1.40126600000000   -1.22051500000000    4.80103400000000
H        -0.78692000000000   -1.87832900000000    5.19640000000000
O         0.56596100000000   -2.71620800000000    4.34787900000000
H         1.38078800000000   -2.42348300000000    4.80767900000000
O         2.21006000000000   -0.84859500000000    4.49058200000000
H         1.79344400000000   -0.10242300000000    4.95839000000000
O         3.25671800000000    3.13051500000000    2.52711400000000
H         4.04078000000000    3.37440800000000    1.99538600000000
O         0.44691900000000    1.25523800000000    4.76076700000000
H         0.24095900000000    2.17315000000000    5.02197400000000
O        -0.15919400000000    3.49689900000000    3.83258600000000
H        -1.05184500000000    3.89124700000000    3.83095300000000
O         1.16007400000000    4.50703100000000    2.02872900000000
H         1.70324500000000    4.54036600000000    2.83420600000000
O         5.27692900000000    0.50378500000000    0.26918300000000
H         5.75400600000000   -0.31573900000000    0.04125400000000
O         4.49483500000000    0.29307400000000    2.61919600000000
H         5.20927400000000    0.68161300000000    2.07735300000000
O         3.72160500000000   -2.15252000000000    2.83201400000000
H         4.27025400000000   -1.57001000000000    3.38484200000000
O         4.87491900000000   -1.79072700000000   -0.82773400000000
H         5.28772000000000   -1.49058600000000   -1.66542600000000
O         4.56246900000000   -0.27471400000000   -2.77547600000000
H         4.34717500000000   -0.13478700000000   -3.71341900000000
O         2.94719300000000   -1.38957500000000   -4.25846000000000
H         3.04567400000000   -2.35459600000000   -4.39688000000000
O         4.04155800000000    3.41442000000000    0.12831200000000
H         3.79665700000000    4.27690300000000   -0.26495100000000
O         3.00165200000000    2.17674300000000   -3.74585600000000
H         3.13990100000000    3.14159000000000   -3.70551400000000
O         1.96430800000000    4.25877600000000   -2.80261500000000
H         1.31873000000000    4.52306200000000   -3.48034400000000
O        -0.34068200000000    3.83536500000000   -3.63707000000000
H        -1.20749100000000    3.62532400000000   -4.00871900000000
O        -1.93729700000000   -4.70167000000000    0.60847700000000
H        -1.13809200000000   -5.24821700000000    0.60968600000000
O        -0.09058800000000   -3.49815500000000   -3.94217200000000
H        -0.99198200000000   -3.83187900000000   -3.81690100000000
O         0.95733700000000   -5.11496300000000   -0.26375400000000
H         1.86379700000000   -5.42271500000000   -0.10991000000000
O         1.95040000000000   -4.26761500000000    1.97219100000000
H         2.61203200000000   -3.88231900000000    2.56597800000000
O        -1.51168100000000    4.64109600000000   -1.41529700000000
H        -0.68120700000000    5.13231000000000   -1.38300500000000
O        -2.43733700000000    3.33124000000000    2.84353900000000
H        -3.11582800000000    3.61635200000000    2.20353600000000
O         2.33627300000000   -3.62970400000000   -3.39733200000000
H         1.61273500000000   -4.07282800000000   -3.87839500000000
O        -5.04399600000000   -0.81832000000000   -0.39203000000000
H        -4.98027600000000   -1.77324500000000   -0.21013400000000
O         3.12677900000000   -4.05464200000000   -1.10662900000000
H         3.97921600000000   -3.61392500000000   -1.23721400000000
O         2.00447200000000    4.80666100000000   -0.48098900000000
H         1.76422200000000    5.08075600000000    0.42825000000000
