63
 energy: -142.111681782877 gnorm: 0.000134704595 xtb: 6.4.1 (a3dbbd7)
C         0.19553193021771   -0.05880726075432   -3.52209936233018
C         0.26813123863020    1.35220204772567   -3.25204020962140
C        -1.04608323198275    1.80170513137395   -2.86335562552137
C        -1.16343241403448   -0.48420639978949   -3.30071017140402
C        -1.93167038675061    0.66606132379829   -2.89327701912306
C        -1.41963406974422   -1.72178096166974   -2.73063900930955
C        -0.32523203368698   -2.58781181491529   -2.34590396839040
C         1.24838585860913   -0.89517463002648   -3.15299935257037
C         0.99309108319199   -2.18240988748935   -2.58018289428793
C         2.41202927109587   -0.33547074610222   -2.50996233595279
C         1.39360405566224    1.89241328371786   -2.64246495538650
C         2.48786646986018    1.03184592671529   -2.26792361312683
C         1.24709875724937    2.89321245196300   -1.61610084794902
C        -1.18656055744255    2.76652606805640   -1.87450864169601
C        -0.01919964534312    3.32370550543845   -1.23837483931084
C        -2.21475450488312    2.62813718919114   -0.87424999150935
C        -2.92246891961868    0.53270535062594   -1.92939701510433
C        -3.06444321414116    1.53004524278244   -0.89983248700676
C        -2.44344548041333   -1.85958034128354   -1.73464383717629
C        -3.18225188260929   -0.75592790747905   -1.33673944849330
C        -0.68740957752147   -3.27054487092224   -1.15850977409275
C        -1.96350211979186   -2.80831302990772   -0.75214394244570
C         0.32694604523198   -3.72930208533159   -0.17929575103202
C         1.99145111353582   -2.42707474922136   -1.56367413269214
C         2.87602370040737   -1.26813778717052   -1.52497028352973
C         1.66446770885713   -3.06365108764147   -0.39662583152021
C         3.41164589485892   -0.82247654022263   -0.33940702181814
C         3.01650396506878    1.49687325114539   -1.02010908148346
C         2.25209307372789    2.64864215900215   -0.61333458890064
C         3.45245358603981    0.57372374458644   -0.06977783820722
C         1.95670193649679    2.84695246446061    0.72821446939461
C        -0.32656923434994    3.52906468063180    0.15315764037468
C        -1.68215940929828    3.09988051218475    0.37940376366067
C         0.64598768258077    3.29629709247444    1.12067230450235
C        -2.02014456934718    2.45346005252521    1.56237437092817
C        -3.41154281229644    0.85693894776149    0.32766015618097
C        -3.48435383713772   -0.55409901155145    0.05780752083859
C        -2.90216968771811    1.31422650151074    1.53659614552938
C        -2.27489427737581   -2.62226080005556    0.59901498346194
C        -3.02320975119880   -1.47010684699667    1.00254072111270
C        -0.00366895945727   -3.28817419782908    1.22618955959978
C        -1.25264936129011   -2.86371015077895    1.59228682337569
C         2.14619608097106   -2.57295680280844    0.85743640065985
C         3.26766720818667   -1.59459575900980    0.95564330980068
C         1.16241757520732   -2.70536606566089    1.81448380150106
C         3.13726081665858    0.77590141662207    1.32229792113411
C         2.41222002008982    1.89611928342430    1.71177548824178
C         2.90127009758130   -0.49569706242480    1.92981500441135
C         0.29519310051475    2.62332280470124    2.34458200816602
C        -1.01164289848900    2.20936172182069    2.56172865172271
C         1.39137519929192    1.75871948685384    2.70488587335046
C        -2.43306904046056    0.36951588245319    2.51931404346195
C        -2.48405677115504   -0.99445616399648    2.25310115059909
C        -1.38910014716457   -1.84219927574711    2.62427371779808
C        -1.27049907918201    0.91986703754060    3.15042014586429
C         1.10536517940188   -1.88562975377864    3.05919617285364
C         1.92622765221546   -0.62693215871371    2.87836496265424
C         1.14603772985613    0.50789404862921    3.25942180523805
C        -0.28565698386910   -1.32011230299263    3.25744243767532
C        -0.21066761911772    0.08068847512461    3.49382013467569
Cl        4.80552402876597   -2.43871419511620    1.41242310838212
Cl        1.64564992616665   -2.86401842238020    4.48643987270572
Cl        0.52217707874589   -5.55422298108647   -0.23109875485543
