128
 energy: -284.286782955266 gnorm: 0.000400305794 xtb: 6.4.1 (a3dbbd7)
C         0.56252400000000   -2.29716900000000    2.67027700000000
C         1.91805300000000   -2.34626700000000    1.86145400000000
C         1.55818400000000   -3.17343200000000    0.58121600000000
C        -0.46190900000000   -2.44568600000000    1.57805000000000
C         0.07915900000000   -2.95144800000000    0.47966700000000
C        -1.91437200000000   -2.48561500000000    1.90324000000000
C        -2.34469300000000   -1.23167100000000    2.72972700000000
C         0.33767100000000   -1.09325300000000    3.62037500000000
C        -1.15955800000000   -0.49408800000000    3.50656600000000
C         1.30318800000000    0.18970200000000    3.41498000000000
C         2.39750500000000   -0.98923100000000    1.48743600000000
C         2.59521900000000    0.03638800000000    2.55677700000000
C         2.93283500000000   -0.65462000000000    0.32487400000000
C         2.23645100000000   -2.82044800000000   -0.78690700000000
C         3.20764000000000   -1.58663400000000   -0.80482300000000
C         1.19396200000000   -2.43652900000000   -1.82442800000000
C        -0.71457700000000   -3.52011000000000   -0.64122100000000
C        -0.06320700000000   -3.22573800000000   -2.04253600000000
C        -2.78900500000000   -2.46413400000000    0.60187600000000
C        -1.98329000000000   -2.72212100000000   -0.64086900000000
C        -3.00329900000000   -0.35943900000000    1.65074900000000
C        -3.23409300000000   -1.02353700000000    0.53294000000000
C        -3.24519300000000    1.11309200000000    1.84089300000000
C        -0.92359500000000    0.79339400000000    2.78629400000000
C         0.40675600000000    1.13465500000000    2.71982300000000
C        -1.84005500000000    1.54036200000000    2.09653900000000
C         0.81306100000000    2.16161000000000    1.92386700000000
C         3.17897700000000    1.33330500000000    1.75070300000000
C         3.63144100000000    0.67687200000000    0.37720900000000
C         2.21514400000000    2.57595000000000    1.66314800000000
C         3.41374600000000    1.51192800000000   -0.90685000000000
C         2.97826000000000   -0.90985500000000   -2.18933700000000
C         1.59557600000000   -1.41670000000000   -2.56565800000000
C         3.13159900000000    0.66582500000000   -2.24500000000000
C         0.85553500000000   -0.85416100000000   -3.73600500000000
C        -1.17670000000000   -2.45189900000000   -2.85633300000000
C        -2.18534000000000   -2.06665800000000   -1.77368000000000
C        -0.69444300000000   -1.23128300000000   -3.74142800000000
C        -3.94845100000000   -0.49454500000000   -0.66543100000000
C        -3.27318100000000   -1.04598500000000   -1.99552400000000
C        -3.66737000000000    1.93676300000000    0.54558600000000
C        -3.87601900000000    1.08412800000000   -0.77420900000000
C        -1.43906200000000    2.58527500000000    1.29340700000000
C        -0.11054700000000    2.89108900000000    1.20547500000000
C        -2.53785500000000    3.13582700000000    0.45563400000000
C         2.04183400000000    3.37883700000000    0.29293000000000
C         2.23768900000000    2.44682800000000   -0.82914600000000
C         0.52920700000000    3.91862300000000    0.34434300000000
C         1.81652600000000    1.25538800000000   -2.70984200000000
C         0.87155400000000    0.63420900000000   -3.43303200000000
C         1.47912500000000    2.42293300000000   -1.92174100000000
C        -1.34598400000000    0.03139100000000   -3.23102900000000
C        -2.49002800000000    0.13979300000000   -2.47862800000000
C        -2.75209200000000    1.28657800000000   -1.74052500000000
C        -0.47255000000000    1.10953000000000   -3.25561900000000
C        -1.90581200000000    3.55964400000000   -0.91843100000000
C        -0.31595200000000    4.07069700000000   -0.97536900000000
C         0.27940000000000    3.28098500000000   -2.20838800000000
C        -1.90830200000000    2.36965500000000   -1.81395500000000
C        -0.76877800000000    2.27566600000000   -2.57867300000000
O         0.45491600000000   -3.50238500000000    3.41680900000000
H         0.65978300000000   -3.26727600000000    4.34134900000000
O        -3.32913300000000   -1.59415400000000    3.65601800000000
H        -3.32176500000000   -2.56390500000000    3.73063800000000
O         2.91990100000000   -2.97012100000000    2.61640500000000
H         2.68917500000000   -3.91424500000000    2.64632100000000
O        -1.56009500000000   -0.28059200000000    4.83353400000000
H        -2.50861500000000   -0.08537200000000    4.82689000000000
O         0.55213900000000   -1.58033000000000    4.91197900000000
H         0.24060200000000   -0.89214900000000    5.52122200000000
O         1.75785800000000   -4.54322800000000    0.85924600000000
H         2.37620000000000   -4.85752100000000    0.16177000000000
O        -2.18515900000000   -3.66834500000000    2.62627500000000
H        -1.36324500000000   -3.92348200000000    3.08874200000000
O        -0.87907400000000   -4.90984600000000   -0.45972800000000
H        -0.20712000000000   -5.20997000000000    0.17401400000000
O         2.94835800000000   -3.95028700000000   -1.21948700000000
H         3.89452300000000   -3.69614400000000   -1.17805300000000
O         4.52451300000000   -2.06220100000000   -0.69105700000000
H         4.99962900000000   -1.78805400000000   -1.49374200000000
O         3.92161300000000   -1.49550700000000   -3.05086400000000
H         3.75309700000000   -1.17094800000000   -3.94586400000000
O         0.22083900000000   -4.42780200000000   -2.70399900000000
H        -0.07474900000000   -5.14650000000000   -2.10783600000000
O         1.48571500000000   -1.23625400000000   -4.92019300000000
H         0.78262600000000   -1.30761100000000   -5.59083600000000
O         4.15217400000000    0.92976400000000   -3.16765300000000
H         4.61853700000000    1.72584800000000   -2.85546600000000
O        -1.04187300000000   -1.45725600000000   -5.08374400000000
H        -1.51681700000000   -2.31135800000000   -5.11016500000000
O        -1.80921100000000   -3.37465000000000   -3.71740500000000
H        -1.20054400000000   -4.14300800000000   -3.76940100000000
O        -4.08738500000000    1.37838300000000    2.92403800000000
H        -4.96879200000000    1.57842100000000    2.57594700000000
O        -5.30465400000000   -0.84907100000000   -0.60080600000000
H        -5.36005600000000   -1.81239500000000   -0.54775400000000
O        -3.90160400000000   -3.31377600000000    0.69741500000000
H        -3.63532900000000   -4.08603700000000    1.21780600000000
O        -4.28779000000000   -1.51312900000000   -2.84194800000000
H        -3.88228500000000   -2.01465600000000   -3.55974300000000
O        -4.88995600000000    2.54144600000000    0.85009000000000
H        -5.40595600000000    2.52712000000000    0.01323100000000
O        -5.07676700000000    1.53376400000000   -1.37110900000000
H        -5.66052700000000    0.75911900000000   -1.45051500000000
O         4.55251500000000    2.32223500000000   -1.09874600000000
H         5.28809100000000    1.84270500000000   -0.66084700000000
O         5.02225700000000    0.42525300000000    0.42707400000000
H         5.29950200000000    0.50870500000000    1.35425300000000
O         3.63602300000000   -0.38121200000000    3.41530000000000
H         3.67060600000000   -1.35138700000000    3.40297800000000
O         4.35457500000000    1.74066300000000    2.37932600000000
H         4.12139500000000    2.46834100000000    2.98011200000000
O         0.55050900000000    5.12307300000000    1.05766400000000
H         0.57094200000000    5.84157800000000    0.40717200000000
O        -0.31859100000000    5.43185400000000   -1.24636500000000
H        -0.90303500000000    5.58320000000000   -2.00412400000000
O         1.65709100000000    0.66763700000000    4.68033400000000
H         2.58719800000000    0.41479900000000    4.82411100000000
O         2.65048100000000    3.49006600000000    2.64560000000000
H         2.18168900000000    4.32442900000000    2.48823900000000
O        -2.67171000000000    4.58455100000000   -1.47572000000000
H        -3.00837700000000    5.10219600000000   -0.71997200000000
O        -3.10173500000000    4.29612200000000    1.00594000000000
H        -3.97838600000000    4.05410300000000    1.35623100000000
O         2.91197200000000    4.47072200000000    0.23344800000000
H         3.75922200000000    4.17055000000000   -0.12479400000000
O         0.55564000000000    4.22019400000000   -3.22234200000000
H         0.91290600000000    3.74828700000000   -3.98318300000000
