156
 energy: -348.047254134353 gnorm: 0.000433369085 xtb: 6.4.1 (a3dbbd7)
C         3.91292800000000   -0.50042100000000    0.04970800000000
C         3.36279200000000   -1.82910300000000    0.78706200000000
C         2.71167700000000   -1.32924400000000    2.13571200000000
C         3.47602900000000    0.66739300000000    1.02517500000000
C         2.36287800000000    0.09469600000000    1.85465100000000
C         3.27858500000000    2.09037700000000    0.45084500000000
C         2.82524900000000    2.21975000000000   -1.03114200000000
C         3.63611000000000   -0.36800800000000   -1.50916300000000
C         3.19856700000000    1.10520200000000   -2.04748000000000
C         2.60025800000000   -1.34414200000000   -2.17495400000000
C         2.38668700000000   -2.78851000000000    0.03765600000000
C         2.28863900000000   -2.71173400000000   -1.51349000000000
C         0.96352700000000   -2.78238000000000    0.49527200000000
C         1.55932900000000   -2.13270700000000    2.86034800000000
C         0.73438200000000   -3.10595300000000    1.92135600000000
C         0.45826900000000   -1.20470300000000    3.53097200000000
C         1.96144700000000    0.91705100000000    3.02540200000000
C         0.74121800000000    0.30462600000000    3.82671300000000
C         2.22359200000000    2.97489400000000    1.30396500000000
C         1.50129900000000    2.32585800000000    2.53822400000000
C         1.39153300000000    2.63729400000000   -0.97340300000000
C         1.22078500000000    3.53000700000000    0.19347000000000
C         0.68149400000000    3.03543200000000   -2.20607800000000
C         1.97491000000000    0.85335100000000   -3.03824500000000
C         1.45214500000000   -0.45399700000000   -2.52355300000000
C         0.85582700000000    1.93040200000000   -3.31390700000000
C         0.27364600000000   -0.94381300000000   -2.81449600000000
C         0.80542600000000   -3.29248900000000   -1.87084500000000
C         0.19432200000000   -3.63911100000000   -0.47329700000000
C        -0.05777600000000   -2.39069500000000   -2.79529300000000
C        -1.35703100000000   -3.64020500000000   -0.32598400000000
C        -0.77093800000000   -2.88771400000000    2.23965900000000
C        -0.73504800000000   -1.44671700000000    2.64896000000000
C        -1.85487300000000   -3.25748100000000    1.16022100000000
C        -1.73148100000000   -0.61256200000000    2.48837900000000
C        -0.48287800000000    1.28390300000000    3.50861800000000
C         0.03506700000000    2.08064300000000    2.36457800000000
C        -1.86033500000000    0.67457700000000    3.20550000000000
C        -0.27094200000000    3.71242300000000    0.57907100000000
C        -0.75413700000000    2.63890200000000    1.48378300000000
C        -0.86907500000000    3.17118500000000   -1.94652300000000
C        -1.33972700000000    3.74011900000000   -0.57827700000000
C        -0.60905800000000    1.30014800000000   -3.47348000000000
C        -0.73521700000000   -0.22435300000000   -3.63577600000000
C        -1.31533400000000    1.78955200000000   -2.26005100000000
C        -1.61444700000000   -2.39131000000000   -2.66751700000000
C        -2.20355400000000   -2.72229300000000   -1.27394700000000
C        -2.09340200000000   -0.93927500000000   -3.21842400000000
C        -2.95543500000000   -2.12840300000000    0.92401900000000
C        -3.05364400000000   -1.00439200000000    1.95377500000000
C        -2.64903200000000   -1.58459900000000   -0.42139200000000
C        -2.91777900000000    1.48919100000000    2.32166000000000
C        -2.24690100000000    2.67754900000000    1.54432500000000
C        -2.66706200000000    3.01527700000000    0.08330500000000
C        -3.73937700000000    0.36701200000000    1.51465400000000
C        -2.34349600000000    1.18573700000000   -1.72592600000000
C        -3.00928100000000   -0.03543400000000   -2.29433300000000
C        -3.62469800000000   -0.63244100000000   -0.99445700000000
C        -3.26914800000000    1.84969200000000   -0.75392400000000
C        -3.98222700000000    0.62164800000000   -0.04228900000000
O         5.31828600000000   -0.52639100000000    0.15006200000000
H         5.54257700000000   -1.39899900000000    0.54819700000000
O         4.51219500000000    2.75316100000000    0.47514800000000
H         5.05403300000000    2.32563800000000    1.16339000000000
O         3.04852600000000    1.03819900000000    3.91294700000000
H         2.77784100000000    1.67592700000000    4.59255900000000
O         4.51556000000000   -2.58268300000000    1.07937600000000
H         4.54072300000000   -2.73678600000000    2.03688600000000
O         1.62637700000000    3.18276900000000    3.66188000000000
H         2.17727500000000    3.93370200000000    3.37621100000000
O         2.93135400000000    4.06010500000000    1.82329000000000
H         3.71108100000000    4.18213500000000    1.24532600000000
O         3.81168400000000   -1.36523500000000    3.06395700000000
H         3.48780200000000   -1.06286500000000    3.92741500000000
O         3.39699300000000    3.42415600000000   -1.51075200000000
H         4.08076700000000    3.18329800000000   -2.16486600000000
O        -0.36546400000000    4.93687100000000    1.27669200000000
H         0.46095000000000    5.42076800000000    1.07395200000000
O         1.15224000000000    4.28277900000000   -2.66937000000000
H         1.33702100000000    4.16419000000000   -3.62134800000000
O         2.14846900000000   -2.88886100000000    3.87371200000000
H         2.21578600000000   -3.80360100000000    3.53930600000000
O         4.26842200000000    1.59824500000000   -2.79670100000000
H         4.85447400000000    0.83216500000000   -2.97859700000000
O         4.84343600000000   -0.67159700000000   -2.16223200000000
H         5.54466600000000   -0.59674700000000   -1.47482400000000
O         1.08984400000000   -4.43731900000000    2.24797400000000
H         0.39121000000000   -4.76176600000000    2.84778900000000
O        -1.03485600000000   -3.66304800000000    3.40300500000000
H        -1.85962700000000   -4.15819800000000    3.21530000000000
O        -2.51698500000000   -4.38536000000000    1.66378600000000
H        -3.44242300000000   -4.30688800000000    1.34809400000000
O        -1.39017100000000    3.97530800000000   -2.98268000000000
H        -1.50199500000000    4.86945900000000   -2.61798000000000
O        -1.67898700000000    5.07281200000000   -0.82084200000000
H        -1.49597000000000    5.55076800000000    0.01377300000000
O        -3.79068400000000   -1.55877200000000    3.02697500000000
H        -3.66795200000000   -0.98441000000000    3.80242500000000
O        -5.03047800000000    0.30478200000000    2.07509900000000
H        -5.06878300000000    0.98918300000000    2.77300900000000
O        -5.35074200000000    0.84753500000000   -0.22886900000000
H        -5.78422000000000    0.66146900000000    0.63116300000000
O        -4.82475100000000   -1.30604300000000   -1.30016200000000
H        -5.52901400000000   -0.62644600000000   -1.25343800000000
O        -4.09518100000000    0.41616300000000   -3.08271400000000
H        -3.99568700000000   -0.01190600000000   -3.95712700000000
O        -2.82437700000000   -1.17277400000000   -4.38551300000000
H        -2.88489500000000   -2.15048200000000   -4.47728700000000
O         0.96728200000000   -4.46448800000000   -2.60987800000000
H         1.20492700000000   -5.17276000000000   -1.98889000000000
O         0.60183700000000   -4.99461600000000   -0.21634700000000
H        -0.20780800000000   -5.54058600000000   -0.23339800000000
O         3.24083400000000   -3.60146300000000   -2.03558500000000
H         3.53704100000000   -4.15226600000000   -1.28001100000000
O         3.09896800000000   -1.69426300000000   -3.46724300000000
H         3.69870800000000   -2.45245600000000   -3.34001400000000
O        -1.74516200000000   -4.96608800000000   -0.57015200000000
H        -2.59664400000000   -4.93041600000000   -1.04557400000000
O        -3.38444200000000   -3.49055000000000   -1.52114500000000
H        -4.15016100000000   -2.89242600000000   -1.60134500000000
O         1.16306700000000    2.62111000000000   -4.48763500000000
H         1.68219700000000    2.01396500000000   -5.04330300000000
O        -2.12263700000000   -3.36817900000000   -3.53335300000000
H        -1.38654400000000   -3.61839800000000   -4.12527300000000
O        -0.46113000000000   -0.53164800000000   -4.97621200000000
H        -0.93222500000000    0.12780800000000   -5.50935400000000
O        -3.84270900000000    2.04759000000000    3.21429700000000
H        -3.54240400000000    2.97373800000000    3.35102600000000
O        -2.50291200000000    3.83101600000000    2.33913800000000
H        -3.02821100000000    4.44322600000000    1.79315100000000
O        -0.69997000000000    2.12874800000000    4.61342600000000
H         0.08703400000000    2.68761700000000    4.71488900000000
O         4.56894400000000    0.87379400000000    1.91521000000000
H         4.64007800000000    0.10771200000000    2.51517600000000
O        -1.21794800000000    1.84146700000000   -4.61905300000000
H        -1.32812600000000    2.79531500000000   -4.47271900000000
O         1.06942600000000    0.46261500000000    5.17429900000000
H         0.62748600000000   -0.24624100000000    5.66671000000000
O         2.51574400000000    0.64428400000000   -4.32534400000000
H         2.93699000000000   -0.23384000000000   -4.34375000000000
O         0.13979200000000   -1.73579000000000    4.80026500000000
H        -0.24229700000000   -2.61955500000000    4.67706100000000
O        -2.48964000000000    0.36720400000000    4.43417500000000
H        -2.24283100000000    1.07761500000000    5.04919000000000
O         0.18024100000000   -2.84121500000000   -4.11971300000000
H         1.12146300000000   -2.74415700000000   -4.31471200000000
O        -3.64533700000000    4.01046200000000    0.20598300000000
H        -4.18766400000000    3.97619300000000   -0.60101100000000
O        -4.23247200000000    2.51352600000000   -1.55198800000000
H        -4.52511100000000    1.89810200000000   -2.24893500000000
O         1.67774500000000    4.84196900000000   -0.11163100000000
H         1.80387700000000    4.92061200000000   -1.07410400000000
O         2.93711300000000   -4.07328300000000    0.35370500000000
H         2.20827900000000   -4.71452900000000    0.43881300000000
O        -4.22131200000000   -2.77733900000000    0.89802100000000
H        -4.70369500000000   -2.48945500000000    1.69223000000000
