140
 energy: -311.644127600690 gnorm: 0.000140588161 xtb: 6.4.1 (a3dbbd7)
C         1.64050400000000   -2.42703300000000   -2.43750500000000
C         0.12567900000000   -3.04561800000000   -2.28151400000000
C         0.02996500000000   -3.43432000000000   -0.77836000000000
C         2.30645500000000   -2.65204400000000   -1.03837900000000
C         1.17372400000000   -2.78947400000000   -0.08841900000000
C         3.44110300000000   -1.69661400000000   -0.56662300000000
C         3.52500700000000   -0.25207600000000   -1.19598200000000
C         1.68245700000000   -0.98417200000000   -2.96822600000000
C         2.86074800000000   -0.01551200000000   -2.57593700000000
C         0.44622500000000   -0.18983700000000   -2.70173100000000
C        -1.08594500000000   -2.16109800000000   -2.78818300000000
C        -0.79428900000000   -0.71963800000000   -2.80509100000000
C        -2.44838400000000   -2.11258700000000   -1.93970800000000
C        -1.12554600000000   -2.89133600000000   -0.02133500000000
C        -2.16926100000000   -2.23049200000000   -0.48862800000000
C        -1.23167800000000   -3.24222800000000    1.43041900000000
C         1.41573700000000   -3.19595500000000    1.31429600000000
C         0.10477700000000   -3.09346000000000    2.21582500000000
C         3.38565500000000   -1.39313500000000    1.01013000000000
C         2.44285000000000   -2.21721900000000    1.97045900000000
C         3.05570500000000    0.66781500000000   -0.10741400000000
C         3.02763700000000    0.07954200000000    1.07668700000000
C         3.10578300000000    2.13857100000000   -0.33296900000000
C         2.16992700000000    1.44086900000000   -2.73704600000000
C         0.70463500000000    1.14784600000000   -2.77924500000000
C         2.34161600000000    2.54690400000000   -1.63696400000000
C        -0.35709800000000    2.15598700000000   -3.04174500000000
C        -2.01741200000000    0.07658800000000   -3.09802200000000
C        -3.13957400000000   -0.72940800000000   -2.27212200000000
C        -1.81443600000000    1.58746600000000   -2.84368800000000
C        -3.69636600000000    0.05521600000000   -1.02303900000000
C        -3.23034500000000   -2.02428600000000    0.56531100000000
C        -2.43698200000000   -2.32622600000000    1.90115500000000
C        -3.97838000000000   -0.64747800000000    0.39487700000000
C        -1.96171100000000   -1.07770300000000    2.53798100000000
C         0.29560400000000   -1.74341800000000    2.84353700000000
C         1.52519200000000   -1.27088300000000    2.71520400000000
C        -0.84513900000000   -1.08976100000000    3.54739000000000
C         2.92887400000000    0.79967900000000    2.38531300000000
C         1.91422500000000    0.05110700000000    3.30281100000000
C         2.37144100000000    2.91660100000000    0.80975800000000
C         2.34220000000000    2.25410300000000    2.23087700000000
C         0.97536700000000    2.94706600000000   -1.08869700000000
C        -0.19054300000000    3.30118400000000   -1.95874100000000
C         0.98930200000000    3.10038700000000    0.22697000000000
C        -2.09732200000000    1.95532600000000   -1.43396900000000
C        -2.87281300000000    1.24699700000000   -0.64634200000000
C        -1.52833500000000    3.31974700000000   -1.15038400000000
C        -3.64045500000000    0.46242700000000    1.48315300000000
C        -2.48758500000000    0.11721000000000    2.36365400000000
C        -3.29029100000000    1.76733300000000    0.69741400000000
C        -0.59828300000000    0.42394400000000    3.86746600000000
C         0.68151300000000    0.91305600000000    3.25386600000000
C         0.90472500000000    2.08220200000000    2.66939700000000
C        -1.83843900000000    1.16608200000000    3.23839800000000
C        -0.06568900000000    3.77373100000000    1.03453900000000
C        -1.48619300000000    3.64573300000000    0.39038400000000
C        -2.10526600000000    2.52229900000000    1.20030600000000
C        -0.18469600000000    3.09329200000000    2.44947500000000
C        -1.43971000000000    2.27355900000000    2.31510500000000
O         2.31816700000000   -3.17691800000000   -3.40252400000000
H         2.64666000000000   -3.98315400000000   -2.97495400000000
O         4.64533600000000   -2.36661900000000   -0.82583300000000
H         5.20378300000000   -1.75920600000000   -1.34522700000000
O         1.90707400000000   -4.52711200000000    1.35716100000000
H         2.16524900000000   -4.68302700000000    2.28194000000000
O         0.10042000000000   -4.20853000000000   -3.05726700000000
H         0.05761500000000   -4.95795800000000   -2.43184200000000
O         3.20895900000000   -2.96019300000000    2.87644700000000
H         4.10493200000000   -2.57069600000000    2.85924300000000
O         4.69044300000000   -1.53150000000000    1.51243600000000
H         5.20961000000000   -1.96087300000000    0.79885600000000
O         0.02580600000000   -4.85892100000000   -0.67734800000000
H         0.66700300000000   -5.12111300000000    0.00349600000000
O         4.91372500000000   -0.01357700000000   -1.33706200000000
H         5.07549800000000    0.94245700000000   -1.25932800000000
O         3.88688700000000   -0.13886100000000   -3.50519300000000
H         3.47575600000000   -0.40427000000000   -4.34727200000000
O         1.71333500000000   -1.03396700000000   -4.39286900000000
H         1.81915600000000   -1.96726100000000   -4.64334400000000
O        -3.26489800000000   -3.18477100000000   -2.28312300000000
H        -3.88744300000000   -2.86433000000000   -2.95896100000000
O        -1.45036300000000   -2.59052000000000   -4.08004400000000
H        -1.14960700000000   -3.51581800000000   -4.15219600000000
O        -5.35067800000000   -0.92187200000000    0.44899500000000
H        -5.71149000000000   -0.46449900000000    1.22833000000000
O        -4.16203000000000   -3.07644600000000    0.45895300000000
H        -5.01178100000000   -2.68004600000000    0.19148100000000
O         0.15862500000000   -4.05364100000000    3.23682600000000
H        -0.36880200000000   -4.81426600000000    2.94167500000000
O        -1.61084700000000   -4.59859200000000    1.55568100000000
H        -2.27610400000000   -4.79028100000000    0.88189900000000
O        -3.23477400000000   -2.99747200000000    2.83117700000000
H        -3.88762600000000   -3.50616000000000    2.31725900000000
O        -4.78250700000000    0.63331700000000    2.28606400000000
H        -4.52450600000000    1.15404100000000    3.06094000000000
O         4.45217400000000    2.51266200000000   -0.42914700000000
H         4.44942800000000    3.41126900000000   -0.80595100000000
O         4.19155000000000    0.88434500000000    2.98687600000000
H         4.15280400000000    0.36719600000000    3.80896600000000
O         2.91882200000000    4.21244800000000    0.92046700000000
H         3.32242900000000    4.25419700000000    1.81387400000000
O         3.02862900000000    3.09635100000000    3.12096900000000
H         3.83559500000000    2.60006800000000    3.37724300000000
O        -2.74212200000000    1.59688500000000    4.22422400000000
H        -2.22521700000000    2.05801400000000    4.90186100000000
O        -0.51436800000000    0.63622300000000    5.25000000000000
H        -1.00566800000000   -0.08753500000000    5.67515300000000
O        -1.19705200000000   -1.74224800000000    4.74146600000000
H        -1.50237900000000   -2.63291700000000    4.52074400000000
O         2.45831900000000   -0.07127000000000    4.59698400000000
H         1.73228400000000   -0.04237300000000    5.23437300000000
O        -0.25793000000000    4.03458400000000    3.47812300000000
H        -0.01502300000000    4.89591700000000    3.09673700000000
O        -4.44952100000000    2.56514300000000    0.58480800000000
H        -4.17171400000000    3.47149900000000    0.38976400000000
O        -2.39996600000000    4.23339800000000   -1.78678200000000
H        -1.86229600000000    5.00811300000000   -2.02768900000000
O        -2.22929300000000    4.81363800000000    0.62555500000000
H        -1.60142000000000    5.54596300000000    0.72446300000000
O         0.26921200000000    5.13725400000000    1.17916600000000
H         1.22594600000000    5.22225600000000    1.00514100000000
O         0.00128100000000    4.54460000000000   -2.57261900000000
H         0.20024100000000    4.35880100000000   -3.51089400000000
O        -0.21566000000000    2.69420400000000   -4.33057100000000
H        -1.09701000000000    2.61066300000000   -4.74879600000000
O         2.98450300000000    3.67677400000000   -2.15550300000000
H         3.06425800000000    3.54538200000000   -3.11641400000000
O        -2.29191400000000   -0.03105300000000   -4.46857300000000
H        -2.27242900000000   -0.97247400000000   -4.70880300000000
O         2.86160400000000   -3.96802800000000   -1.15299700000000
H         3.12530000000000   -4.27642300000000   -0.27354600000000
O        -4.18772400000000   -1.03432100000000   -3.13677100000000
H        -4.82271300000000   -0.30277900000000   -3.10461800000000
O        -2.66412500000000    2.29726300000000   -3.71427700000000
H        -2.92487300000000    3.12198400000000   -3.26317300000000
O        -4.92436100000000    0.59710400000000   -1.47257700000000
H        -5.24822300000000    1.22225300000000   -0.80383600000000
O         2.61352700000000    2.01108000000000   -3.94851000000000
H         2.14785900000000    1.57947500000000   -4.67577800000000
140
 energy: -311.644127726352 gnorm: 0.000090631879 xtb: 6.4.1 (a3dbbd7)
C         1.64050071940714   -2.42708062522741   -2.43749968363786
C         0.12564453309482   -3.04554756670661   -2.28148401581803
C         0.02996033324003   -3.43432861391941   -0.77835032151837
C         2.30644674013344   -2.65201631747652   -1.03837716471310
C         1.17372937586872   -2.78949373238855   -0.08840988541142
C         3.44113610780582   -1.69660263612274   -0.56665809377862
C         3.52500999120874   -0.25205557026159   -1.19602972799100
C         1.68238635861655   -0.98420944698021   -2.96816644691655
C         2.86075001270528   -0.01558342162774   -2.57602437582504
C         0.44617826642109   -0.18982402266342   -2.70166656752206
C        -1.08598895106968   -2.16108528731813   -2.78813775110986
C        -0.79433425717709   -0.71963142396002   -2.80500959731767
C        -2.44842894876336   -2.11261942574303   -1.93969361663160
C        -1.12556250243763   -2.89137910818675   -0.02132354120467
C        -2.16927801250782   -2.23051963531367   -0.48861367389249
C        -1.23167078800249   -3.24225403122973    1.43043584857862
C         1.41574006988020   -3.19597881614189    1.31429719625596
C         0.10479067816545   -3.09347728355472    2.21584584906964
C         3.38558506270925   -1.39313500799957    1.01008632860922
C         2.44283968703145   -2.21722915122321    1.97046812647111
C         3.05570648138905    0.66782855861114   -0.10744080450659
C         3.02760969887767    0.07955066830356    1.07665550875409
C         3.10577934723212    2.13858677451013   -0.33298204631341
C         2.16993328657125    1.44084210590861   -2.73704522074021
C         0.70462981525262    1.14785083487980   -2.77933863042670
C         2.34156274375073    2.54689149089252   -1.63692445076142
C        -0.35709298077219    2.15602782428865   -3.04178810192338
C        -2.01742179595625    0.07659217327594   -3.09803612069891
C        -3.13959257388072   -0.72941855059738   -2.27212654389978
C        -1.81444090921502    1.58747415086171   -2.84370346286646
C        -3.69634665601030    0.05518957001421   -1.02301846434563
C        -3.23035394473606   -2.02427847636882    0.56532389540234
C        -2.43696194492447   -2.32622470983669    1.90114136774750
C        -3.97844413309358   -0.64749794168327    0.39488784397423
C        -1.96168947265484   -1.07769528544217    2.53795006434150
C         0.29560405289690   -1.74342956384938    2.84355631012499
C         1.52518727379529   -1.27088756576380    2.71521066807083
C        -0.84514649928238   -1.08975511280588    3.54738522834814
C         2.92886018443965    0.79967713118488    2.38529207286527
C         1.91422097117415    0.05110845256179    3.30280272680779
C         2.37144351485195    2.91660678556459    0.80977291618398
C         2.34221452171642    2.25411410008599    2.23089256814460
C         0.97531224923653    2.94697094122107   -1.08863757962543
C        -0.19055088319118    3.30115033148005   -1.95870951350305
C         0.98929921519433    3.10040223332400    0.22701429078790
C        -2.09732776673869    1.95532688468895   -1.43397164904419
C        -2.87282515570384    1.24700132233213   -0.64634421748678
C        -1.52833210847001    3.31973818160415   -1.15037085472541
C        -3.64044968737852    0.46241503004292    1.48313173021236
C        -2.48757864824175    0.11721197437516    2.36363436544041
C        -3.29029206222764    1.76733572009457    0.69741167440199
C        -0.59827978319582    0.42394921738339    3.86745984450210
C         0.68151386020739    0.91306610424947    3.25386042095567
C         0.90473242673785    2.08222537544467    2.66941809161534
C        -1.83843849285318    1.16607920325477    3.23838563472417
C        -0.06568572263824    3.77375521795426    1.03456573055160
C        -1.48618920297954    3.64574656542720    0.39039834306399
C        -2.10527012378333    2.52231023527356    1.20031167417719
C        -0.18470871024385    3.09330060113631    2.44949340275219
C        -1.43971223846587    2.27356151800014    2.31510669859745
O         2.31818394801224   -3.17696211270016   -3.40254828491158
H         2.64698952503006   -3.98300981816026   -2.97485017360651
O         4.64538495117277   -2.36660079738179   -0.82588651474779
H         5.20375745486098   -1.75929063250363   -1.34547491680478
O         1.90708147255741   -4.52712659411263    1.35713334922839
H         2.16527411539843   -4.68302930900109    2.28190672202331
O         0.10035364521650   -4.20842263684990   -3.05726871737306
H         0.05797757362998   -4.95787652756798   -2.43184854426722
O         3.20896250523940   -2.96018483115844    2.87645782059301
H         4.10496623184633   -2.57075724526798    2.85913707340726
O         4.69035946852981   -1.53151320127297    1.51241525818424
H         5.20960963506746   -1.96065687649232    0.79876838346824
O         0.02591829883706   -4.85892156418237   -0.67734283531872
H         0.66700360544061   -5.12104862776424    0.00362718978945
O         4.91372166142572   -0.01357583014064   -1.33716722509280
H         5.07550248002359    0.94246512063927   -1.25939586062869
O         3.88684200888276   -0.13904086922434   -3.50531647002677
H         3.47563429319037   -0.40473409793301   -4.34722616276388
O         1.71323354803127   -1.03404530549771   -4.39282701228280
H         1.81897370856396   -1.96735254957197   -4.64325682632799
O        -3.26493849401288   -3.18479767011658   -2.28313053093044
H        -3.88741371239095   -2.86434957331846   -2.95903829948164
O        -1.45034068503147   -2.59044183578215   -4.08006585597887
H        -1.14959568806136   -3.51574267997422   -4.15223503481860
O        -5.35075649824707   -0.92185934350540    0.44900878214509
H        -5.71155474917176   -0.46448457413190    1.22834663650045
O        -4.16203827465791   -3.07644031571893    0.45900473919372
H        -5.01175662942603   -2.68008990797591    0.19137259661148
O         0.15864566972316   -4.05366016432415    3.23683865896488
H        -0.36884380705985   -4.81425628164887    2.94172396085991
O        -1.61085349019815   -4.59861348882980    1.55572251581015
H        -2.27610574419238   -4.79030968739785    0.88193860724001
O        -3.23475420660205   -2.99743740108115    2.83119433124003
H        -3.88763408837679   -3.50611307817192    2.31730480562300
O        -4.78249735098338    0.63331008306837    2.28604619576767
H        -4.52447589394947    1.15400162189296    3.06093744769825
O         4.45215987435899    2.51268123615852   -0.42921995041033
H         4.44939498548949    3.41131685582060   -0.80595923275905
O         4.19155019711242    0.88431995075362    2.98683926306026
H         4.15283588472532    0.36710198881876    3.80888604337768
O         2.91882338245640    4.21245347626210    0.92046322376533
H         3.32263103748631    4.25416894753962    1.81377498095365
O         3.02868375514749    3.09634045884303    3.12096428628121
H         3.83560128854773    2.60000502717272    3.37728796990141
O        -2.74212736501612    1.59686993592017    4.22421351617406
H        -2.22525364748154    2.05814479470444    4.90177115427382
O        -0.51435531197642    0.63623055948832    5.24999148495272
H        -1.00568246294005   -0.08750962787431    5.67514446537245
O        -1.19711813300157   -1.74222570108279    4.74145358086142
H        -1.50289010586002   -2.63275112905265    4.52068775626449
O         2.45832267326035   -0.07125227476116    4.59697303708790
H         1.73229122306855   -0.04237400140887    5.23436375789030
O        -0.25797725536287    4.03458204205839    3.47814678558263
H        -0.01489827877954    4.89588707856454    3.09680578008752
O        -4.44952543308510    2.56513585474724    0.58481008481092
H        -4.17173128704875    3.47147168805337    0.38965450858687
O        -2.39995570266873    4.23337663053189   -1.78678675971890
H        -1.86233551683155    5.00819208249279   -2.02748576199141
O        -2.22927511598392    4.81367296724757    0.62552138090571
H        -1.60136850457972    5.54594590949506    0.72463264711786
O         0.26923084684995    5.13727135181840    1.17920062600201
H         1.22596918214770    5.22224952921315    1.00517838050017
O         0.00137202037335    4.54461570863536   -2.57247706322682
H         0.20027141808371    4.35892528337166   -3.51077984356727
O        -0.21567888017988    2.69432363171092   -4.33058768990665
H        -1.09695595318421    2.61063604558206   -4.74889445291936
O         2.98436378448526    3.67683321197982   -2.15542269949485
H         3.06387764199958    3.54558699085932   -3.11634419134795
O        -2.29190208268848   -0.03109501706628   -4.46858676502386
H        -2.27205499446409   -0.97251883636770   -4.70884090945343
O         2.86155028165189   -3.96801392587366   -1.15297300760916
H         3.12538694332703   -4.27632305398558   -0.27353578322363
O        -4.18772937089670   -1.03431799197074   -3.13677907477265
H        -4.82276591419063   -0.30281897513590   -3.10454593046546
O        -2.66412901532488    2.29722555225816   -3.71430143322779
H        -2.92482506481274    3.12199672767478   -3.26326445341288
O        -4.92435460203918    0.59704666190887   -1.47254962890562
H        -5.24823829363727    1.22216534110361   -0.80379166778353
O         2.61363992034081    2.01112885469499   -3.94838587976327
H         2.14825583978675    1.57940581441797   -4.67581964118938
