156
 energy: -348.016504290490 gnorm: 0.000382685462 xtb: 6.4.1 (a3dbbd7)
C        -3.85823200000000    0.71940000000000   -0.41521100000000
C        -3.39502200000000    1.83488800000000    0.65474500000000
C        -2.99388000000000    1.03225600000000    1.95448700000000
C        -3.62284200000000   -0.64678100000000    0.35257600000000
C        -2.64312200000000   -0.32582500000000    1.44563100000000
C        -3.37825700000000   -1.93236000000000   -0.46974900000000
C        -2.69400600000000   -1.78578700000000   -1.85953600000000
C        -3.33617700000000    0.89085600000000   -1.90594300000000
C        -2.86074100000000   -0.46663900000000   -2.66595000000000
C        -2.17687200000000    1.91431200000000   -2.18613900000000
C        -2.28173100000000    2.86461800000000    0.27615800000000
C        -1.93885300000000    3.10153400000000   -1.22093200000000
C        -0.94822000000000    2.67502100000000    0.92415800000000
C        -1.95700500000000    1.60074700000000    2.99536200000000
C        -0.95632900000000    2.67510500000000    2.40443100000000
C        -1.01714300000000    0.49029900000000    3.65136200000000
C        -2.46486500000000   -1.38711800000000    2.47271400000000
C        -1.37684700000000   -1.03047100000000    3.57189500000000
C        -2.50295000000000   -3.03319500000000    0.33456900000000
C        -1.97554100000000   -2.69650300000000    1.77854500000000
C        -1.30174600000000   -2.29267800000000   -1.66887300000000
C        -1.35148900000000   -3.41213800000000   -0.70261400000000
C        -0.41220200000000   -2.47757100000000   -2.83444000000000
C        -1.48382200000000   -0.09586900000000   -3.38026300000000
C        -1.01221600000000    1.04248000000000   -2.52429500000000
C        -0.37010300000000   -1.16302700000000   -3.70051600000000
C         0.21525900000000    1.50090300000000   -2.50490600000000
C        -0.39892600000000    3.65149900000000   -1.22047300000000
C        -0.00848100000000    3.67336000000000    0.28404200000000
C         0.57709500000000    2.89763900000000   -2.15422600000000
C         1.51273100000000    3.56490500000000    0.68320800000000
C         0.46065200000000    2.28962400000000    2.88033300000000
C         0.31311100000000    0.80658500000000    3.04340500000000
C         1.69114900000000    2.66436000000000    1.96533200000000
C         1.28952600000000   -0.04923500000000    2.86290000000000
C        -0.14391300000000   -2.01200600000000    3.25033800000000
C        -0.49300400000000   -2.52147600000000    1.89439600000000
C         1.29292500000000   -1.45426300000000    3.29364500000000
C         0.04860500000000   -3.76320900000000   -0.13900000000000
C         0.40742200000000   -2.93337900000000    1.03923100000000
C         1.06892900000000   -2.75318700000000   -2.36886000000000
C         1.29144000000000   -3.61855000000000   -1.09781100000000
C         1.11631900000000   -0.60287500000000   -3.49181600000000
C         1.31277900000000    0.91162400000000   -3.31329700000000
C         1.58576900000000   -1.36203100000000   -2.30505300000000
C         2.12408000000000    2.82163000000000   -1.84533200000000
C         2.62733300000000    3.00880000000000   -0.36896000000000
C         2.61369900000000    1.45211700000000   -2.57226300000000
C         2.35509400000000    1.43759700000000    1.44342300000000
C         2.64905700000000    0.38658000000000    2.42676500000000
C         3.32937400000000    1.80433800000000    0.40617300000000
C         2.44827400000000   -2.12072500000000    2.39580800000000
C         1.86884500000000   -3.07905900000000    1.30814700000000
C         2.51114000000000   -3.12451200000000   -0.10616500000000
C         3.39704000000000   -0.90026000000000    1.94814500000000
C         2.50446100000000   -0.92372900000000   -1.48387700000000
C         3.32082000000000    0.31433200000000   -1.73896700000000
C         3.95450200000000    0.60116200000000   -0.34457700000000
C         3.26720600000000   -1.84673100000000   -0.58791800000000
C         3.94101800000000   -0.86497200000000    0.44890400000000
O        -5.26002200000000    0.81130200000000   -0.52913500000000
H        -5.52257600000000    1.59246000000000    0.00989300000000
O        -4.61769400000000   -2.50882100000000   -0.77423800000000
H        -5.25186400000000   -2.19629200000000   -0.10328000000000
O        -3.68722900000000   -1.61259600000000    3.13481200000000
H        -3.55724900000000   -2.39727200000000    3.69103000000000
O        -4.55740500000000    2.58597500000000    0.91551700000000
H        -4.71827100000000    2.57417800000000    1.87168300000000
O        -2.31660700000000   -3.75180400000000    2.66290400000000
H        -2.83258500000000   -4.39288300000000    2.14157700000000
O        -3.31702600000000   -4.15528800000000    0.49892000000000
H        -3.99257700000000   -4.11112900000000   -0.20711200000000
O        -4.23191900000000    0.95274900000000    2.68563100000000
H        -4.06596400000000    0.46417000000000    3.50745400000000
O        -3.21551100000000   -2.82887100000000   -2.66402000000000
H        -3.77898000000000   -2.41799200000000   -3.34728600000000
O        -0.00725500000000   -5.10896600000000    0.28626500000000
H        -0.80553700000000   -5.48650500000000   -0.13640500000000
O        -0.83371700000000   -3.57478300000000   -3.61518200000000
H        -0.85754600000000   -3.25544600000000   -4.53814100000000
O        -2.68319700000000    2.19403800000000    4.02840100000000
H        -2.63521200000000    3.15935700000000    3.88825600000000
O        -3.80631700000000   -0.72923900000000   -3.65892500000000
H        -4.33468000000000    0.09153300000000   -3.76146700000000
O        -4.41149900000000    1.39663100000000   -2.65717100000000
H        -5.21676900000000    1.22955700000000   -2.11514900000000
O        -1.29672500000000    3.93948000000000    2.94594200000000
H        -0.67172300000000    4.09096800000000    3.68243900000000
O         0.63944500000000    2.87637900000000    4.15394200000000
H         1.53241500000000    3.29756600000000    4.10785600000000
O         2.59317200000000    3.38316300000000    2.80381300000000
H         3.31066200000000    2.77802500000000    3.06167100000000
O         1.73911100000000   -3.35523800000000   -3.45515700000000
H         1.76916600000000   -4.30996300000000   -3.27384200000000
O         1.62884600000000   -4.89213400000000   -1.56152700000000
H         1.29239700000000   -5.51847600000000   -0.88821600000000
O         3.31382400000000    0.94593200000000    3.55380000000000
H         3.26048300000000    0.29995800000000    4.27444300000000
O         4.55528100000000   -0.97120100000000    2.74997300000000
H         4.47510500000000   -1.78575100000000    3.28651600000000
O         5.28200400000000   -1.25891000000000    0.49120300000000
H         5.55659600000000   -1.19233900000000    1.43277400000000
O         5.30126200000000    0.94001400000000   -0.54172100000000
H         5.80493500000000    0.10087900000000   -0.45225400000000
O         4.39211200000000   -0.14533900000000   -2.55189000000000
H         4.50267500000000    0.51506900000000   -3.26684100000000
O         3.52680200000000    1.83739600000000   -3.55641000000000
H         3.61237400000000    2.81688700000000   -3.47804600000000
O        -0.40353600000000    4.95328900000000   -1.72349800000000
H        -0.71663700000000    5.54004600000000   -1.01534400000000
O        -0.43051700000000    4.96686900000000    0.74324100000000
H         0.37899600000000    5.41757500000000    1.07055800000000
O        -2.76835600000000    4.13457400000000   -1.68378300000000
H        -3.16904100000000    4.53593900000000   -0.88343400000000
O        -2.44419700000000    2.54718200000000   -3.44018400000000
H        -3.04041700000000    3.29600100000000   -3.25313300000000
O         1.91645200000000    4.86179600000000    1.01528600000000
H         2.67690600000000    5.07151400000000    0.42222200000000
O         3.60064200000000    4.01052700000000   -0.46794200000000
H         4.26625800000000    3.80710600000000    0.22752800000000
O        -0.49808900000000   -1.58197800000000   -5.02572800000000
H        -0.90425400000000   -0.84557800000000   -5.51525700000000
O         2.72265800000000    3.87991300000000   -2.54309600000000
H         2.05643100000000    4.20917400000000   -3.17906100000000
O         1.25297900000000    1.49431500000000   -4.58754900000000
H         1.77715900000000    0.92316000000000   -5.17116200000000
O         3.23028600000000   -2.89705600000000    3.26044400000000
H         2.88748200000000   -3.81333400000000    3.16540300000000
O         1.96324700000000   -4.38506800000000    1.86828100000000
H         2.54966700000000   -4.90273700000000    1.28799500000000
O        -0.14578300000000   -3.06954000000000    4.17569300000000
H        -0.95793400000000   -3.58218200000000    4.03630300000000
O        -4.85268800000000   -0.95792400000000    0.99981800000000
H        -4.99997800000000   -0.32196000000000    1.72525400000000
O         1.89588200000000   -0.94215500000000   -4.61026800000000
H         1.96001400000000   -1.91072800000000   -4.64533900000000
O        -1.92881600000000   -1.43762800000000    4.78718700000000
H        -1.55878800000000   -0.87109500000000    5.48121500000000
O        -1.79861600000000    0.40204000000000   -4.66280200000000
H        -2.18942100000000    1.28853700000000   -4.56348000000000
O        -0.91595700000000    0.76158400000000    5.03409700000000
H        -0.47701600000000    1.61909100000000    5.14504100000000
O         1.75281400000000   -1.44107200000000    4.62586600000000
H         1.39134000000000   -2.23829100000000    5.04519800000000
O         0.50469700000000    3.58308100000000   -3.39927100000000
H        -0.41151500000000    3.56275800000000   -3.70861300000000
O         3.43480800000000   -4.17573700000000   -0.04866200000000
H         4.09051900000000   -4.01577000000000   -0.74942100000000
O         4.29440800000000   -2.40941400000000   -1.38658800000000
H         4.64200700000000   -1.71826500000000   -1.97961400000000
O        -1.79401400000000   -4.60236600000000   -1.34407100000000
H        -1.75609200000000   -4.47796600000000   -2.30928600000000
O        -2.84055800000000    4.08699500000000    0.77217000000000
H        -2.11365700000000    4.65906500000000    1.08072600000000
O         4.40611600000000    2.38533900000000    1.15304800000000
H         5.22720000000000    2.00740400000000    0.76146700000000
