140
 energy: -311.637611796735 gnorm: 0.000237150775 xtb: 6.4.1 (a3dbbd7)
C         3.16848900000000    2.17500800000000    0.48378100000000
C         2.06141100000000    3.06703200000000   -0.26437500000000
C         2.09515300000000    2.62482400000000   -1.75140800000000
C         3.52458600000000    1.06254200000000   -0.57556000000000
C         2.47665500000000    1.17641400000000   -1.62026100000000
C         3.84724400000000   -0.37362200000000   -0.12134600000000
C         3.30772100000000   -0.84762000000000    1.27845800000000
C         2.79679800000000    1.74767000000000    1.97999600000000
C         2.97967300000000    0.18392700000000    2.40089600000000
C         1.33395900000000    2.10514400000000    2.49839200000000
C         0.67649700000000    2.96073800000000    0.25157100000000
C         0.46797700000000    3.11429900000000    1.71401000000000
C        -0.43660300000000    3.11766700000000   -0.45037200000000
C         0.79225400000000    2.83546700000000   -2.63122400000000
C        -0.50176600000000    3.37978900000000   -1.90661200000000
C         0.31789200000000    1.50459700000000   -3.12942700000000
C         2.53826500000000    0.35086200000000   -2.85602100000000
C         1.10470500000000    0.38369100000000   -3.27609100000000
C         3.25928200000000   -1.50108100000000   -1.11042300000000
C         2.86767400000000   -1.16376600000000   -2.58511400000000
C         2.15401900000000   -1.75919100000000    0.95226600000000
C         2.14055100000000   -2.12542800000000   -0.32143600000000
C         1.53135300000000   -2.55640600000000    2.04600000000000
C         1.63543400000000   -0.19938200000000    3.20478300000000
C         0.68802400000000    0.77695700000000    2.64476500000000
C         1.04345900000000   -1.65857200000000    3.23361200000000
C        -0.65602400000000    0.63473600000000    2.60270600000000
C        -1.10087300000000    2.97572800000000    1.84832400000000
C        -1.63647400000000    3.39173900000000    0.41888700000000
C        -1.50686800000000    1.59985500000000    2.15245100000000
C        -2.97114800000000    2.71530100000000   -0.04729500000000
C        -1.73043000000000    2.61520200000000   -2.53231200000000
C        -1.05949400000000    1.38121800000000   -3.08198500000000
C        -2.90485700000000    2.17359600000000   -1.55519800000000
C        -1.61917700000000    0.12523700000000   -3.19239800000000
C         0.55053300000000   -0.87642600000000   -3.35054000000000
C         1.57028300000000   -1.96899700000000   -3.13219500000000
C        -0.82510400000000   -0.99493300000000   -3.33487600000000
C         1.48793400000000   -3.35845500000000   -0.84548500000000
C         0.87716700000000   -3.09729900000000   -2.27296300000000
C         0.29148800000000   -3.35245800000000    1.54476700000000
C         0.27477300000000   -3.77967800000000    0.04289300000000
C        -0.57514200000000   -1.76519200000000    3.18427900000000
C        -1.39055900000000   -0.46714300000000    3.27985000000000
C        -0.84067200000000   -2.42452000000000    1.87536800000000
C        -2.91847000000000    1.16895800000000    2.17088400000000
C        -3.51305900000000    1.43661700000000    0.75234500000000
C        -2.86701700000000   -0.36621100000000    2.64808800000000
C        -2.97160300000000    0.67521400000000   -1.39687100000000
C        -2.96416500000000   -0.20089800000000   -2.60886200000000
C        -3.25278900000000    0.28626400000000   -0.17196100000000
C        -1.53257000000000   -2.25072700000000   -2.90823800000000
C        -0.56440000000000   -2.78181700000000   -1.91487900000000
C        -0.87839800000000   -3.14505100000000   -0.69288400000000
C        -2.94074400000000   -1.76699300000000   -2.33927200000000
C        -1.96717200000000   -2.29118200000000    1.20907300000000
C        -3.17195200000000   -1.49693800000000    1.59672900000000
C        -3.73209100000000   -1.06933600000000    0.19041000000000
C        -2.21596400000000   -3.04669200000000   -0.07040800000000
C        -3.31180700000000   -2.22627800000000   -0.83761900000000
O         4.30936600000000    2.98627600000000    0.54031700000000
H         4.42547300000000    3.24320100000000    1.47715800000000
O         5.23348600000000   -0.54190700000000   -0.07845600000000
H         5.64264500000000    0.24652600000000   -0.47648100000000
O         3.37204500000000    0.89600000000000   -3.84508200000000
H         4.28492100000000    0.86376700000000   -3.52677200000000
O         2.39133900000000    4.42624500000000   -0.11891600000000
H         3.20633900000000    4.57806800000000   -0.62472700000000
O         3.95452100000000   -1.47973700000000   -3.41030200000000
H         4.49177600000000   -2.13711300000000   -2.92524500000000
O         4.26896400000000   -2.50546300000000   -1.19271800000000
H         4.98823700000000   -2.19973300000000   -0.59474000000000
O         3.15612600000000    3.35786600000000   -2.35213000000000
H         2.86461900000000    3.55167800000000   -3.26530400000000
O         4.33946800000000   -1.68997600000000    1.73647700000000
H         3.97355300000000   -2.32567400000000    2.37373800000000
O         2.39236800000000   -4.43161200000000   -0.87091000000000
H         3.29101300000000   -4.07212400000000   -0.96700700000000
O         2.52295400000000   -3.45508800000000    2.47969800000000
H         2.12848900000000   -3.99252800000000    3.18489600000000
O         1.10239900000000    3.69814600000000   -3.68726900000000
H         0.72279800000000    4.56636000000000   -3.43940700000000
O         4.04245800000000    0.13490800000000    3.30843800000000
H         3.64240600000000    0.00375900000000    4.19524400000000
O         3.66939100000000    2.47988400000000    2.79832500000000
H         4.26835100000000    1.81879900000000    3.21561800000000
O        -0.61486300000000    4.75096000000000   -2.14530200000000
H        -1.35549200000000    4.84697400000000   -2.78107400000000
O        -2.25605900000000    3.44673000000000   -3.52824600000000
H        -3.22775800000000    3.46000300000000   -3.38477800000000
O        -4.11865500000000    2.57699600000000   -2.16188900000000
H        -4.43008300000000    1.83329600000000   -2.71310600000000
O         0.17267400000000   -4.48530700000000    2.38330000000000
H         0.11932900000000   -5.26054800000000    1.79311900000000
O         0.12156400000000   -5.18581800000000   -0.01356200000000
H         0.91464700000000   -5.53334700000000   -0.45745400000000
O        -4.06177800000000    0.15814000000000   -3.41189700000000
H        -4.47346100000000   -0.68482100000000   -3.68902500000000
O        -3.93295700000000   -2.29358700000000   -3.17167300000000
H        -3.53526800000000   -3.01719400000000   -3.68587900000000
O        -4.44763000000000   -3.03197400000000   -0.97379600000000
H        -4.30503200000000   -3.82774700000000   -0.43147300000000
O        -5.13275900000000   -0.98176600000000    0.23906600000000
H        -5.46305000000000   -1.83612800000000   -0.11043100000000
O        -4.08913000000000   -2.42008600000000    2.12989200000000
H        -4.41395700000000   -2.04836200000000    2.96730800000000
O        -3.79593000000000   -0.53044700000000    3.67669300000000
H        -4.03207000000000    0.36636600000000    3.98290600000000
O        -1.64015600000000    3.82543100000000    2.81815900000000
H        -1.50066400000000    4.73081700000000    2.48652200000000
O        -1.79195100000000    4.78567900000000    0.44915700000000
H        -2.72942700000000    4.97839300000000    0.27021600000000
O         0.81909600000000    4.41588200000000    2.13274000000000
H         1.41569700000000    4.79767200000000    1.46654100000000
O         1.45798700000000    2.61260100000000    3.81814300000000
H         1.37778600000000    3.58164600000000    3.74790700000000
O        -3.93499900000000    3.72029400000000    0.02854600000000
H        -4.79393800000000    3.28268500000000    0.16707000000000
O        -4.90259700000000    1.62104200000000    0.87046400000000
H        -5.33191200000000    0.74802900000000    0.83353400000000
O         1.47575800000000   -2.30811600000000    4.39245300000000
H         1.34293800000000   -1.70175700000000    5.13556300000000
O         0.84405200000000   -4.30069600000000   -3.00129500000000
H         1.44310700000000   -4.18533500000000   -3.76331000000000
O         1.93552900000000   -2.56470100000000   -4.35271200000000
H         2.79751800000000   -2.17974600000000   -4.60489500000000
O        -1.75429900000000   -3.20438200000000   -3.92327500000000
H        -0.99114800000000   -3.80337600000000   -3.94295200000000
O        -1.47768800000000   -0.08226800000000    4.62806200000000
H        -1.79087500000000   -0.85980600000000    5.11517200000000
O        -3.67861500000000    1.88823600000000    3.11646600000000
H        -3.20422000000000    2.71220500000000    3.31631100000000
O         4.71733600000000    1.46394400000000   -1.27305500000000
H         4.59283100000000    2.38902800000000   -1.55309000000000
O        -0.99896100000000   -2.58451300000000    4.24362300000000
H        -0.65632000000000   -3.47696000000000    4.08871400000000
O         1.89533300000000    0.10793600000000    4.57190600000000
H         1.70690100000000    1.05748800000000    4.69943200000000
O        -2.72169200000000   -4.34561300000000    0.18261300000000
H        -1.97782100000000   -4.95957400000000    0.24569600000000
