140
 energy: -311.641236595155 gnorm: 0.000403669689 xtb: 6.4.1 (a3dbbd7)
C         3.31883500000000    0.55398400000000   -1.77417000000000
C         2.49267600000000   -0.37221800000000   -2.83700000000000
C         2.27768900000000   -1.72680000000000   -2.09870400000000
C         3.58233300000000   -0.40197200000000   -0.55877900000000
C         2.56345900000000   -1.47914000000000   -0.66532300000000
C         3.78888600000000    0.19450800000000    0.85364200000000
C         3.15236300000000    1.60596600000000    1.14453000000000
C         2.67546400000000    1.94055800000000   -1.48107800000000
C         2.85511700000000    2.57908200000000   -0.06175100000000
C         1.20762500000000    2.07810200000000   -1.74641200000000
C         1.17259000000000    0.24041200000000   -3.43394600000000
C         0.57321400000000    1.34801900000000   -2.62770200000000
C        -0.08074100000000   -0.68577600000000   -3.68567900000000
C         0.88297900000000   -2.23524500000000   -2.03147200000000
C        -0.17956400000000   -1.78055400000000   -2.67619800000000
C         0.63021700000000   -3.50425900000000   -1.27428900000000
C         2.64108900000000   -2.66494900000000    0.21745700000000
C         1.35141200000000   -3.59177900000000    0.10494900000000
C         3.18484200000000   -0.74610000000000    2.01676900000000
C         2.69542000000000   -2.21787300000000    1.71316100000000
C         1.99782700000000    1.28523000000000    2.04823100000000
C         2.02583000000000    0.06664300000000    2.55093300000000
C         1.16422200000000    2.42544400000000    2.51191400000000
C         1.51516300000000    3.46574900000000    0.14788400000000
C         0.73585500000000    3.40076500000000   -1.21272300000000
C         0.61786100000000    2.98206300000000    1.22923900000000
C        -0.82769700000000    3.61731000000000   -1.24538100000000
C        -0.78018700000000    1.68572700000000   -3.15637500000000
C        -1.35115800000000    0.25775000000000   -3.49767000000000
C        -1.59456700000000    2.56162600000000   -2.17758400000000
C        -2.14595100000000   -0.31337600000000   -2.37465800000000
C        -1.40332300000000   -2.66150900000000   -2.45241900000000
C        -0.95272300000000   -3.54656700000000   -1.23477000000000
C        -2.65886600000000   -1.72538900000000   -2.28637500000000
C        -1.47749100000000   -3.00236700000000    0.04024300000000
C         0.54218600000000   -3.10058200000000    1.27384500000000
C         1.24502700000000   -2.37794700000000    2.13568600000000
C        -0.90676700000000   -3.46314000000000    1.35102300000000
C         1.16389500000000   -0.37507900000000    3.69214700000000
C         0.61524200000000   -1.82074500000000    3.38625200000000
C        -0.08742900000000    2.03947400000000    3.37912900000000
C        -0.13289700000000    0.52642700000000    3.83840800000000
C        -0.70163100000000    2.98709600000000    1.20616400000000
C        -1.58962300000000    3.53052000000000    0.14579600000000
C        -1.31927800000000    2.53634600000000    2.50242800000000
C        -2.36541000000000    1.76292700000000   -1.19239300000000
C        -2.65873700000000    0.45807700000000   -1.36023100000000
C        -2.87554900000000    2.61303700000000   -0.10808500000000
C        -3.40909700000000   -1.73317800000000   -0.90131900000000
C        -2.52169300000000   -2.20843000000000    0.18236200000000
C        -3.78460300000000   -0.22357700000000   -0.64716800000000
C        -1.70030800000000   -2.63979700000000    2.42220800000000
C        -0.81516300000000   -1.58189000000000    2.99329200000000
C        -1.14261100000000   -0.30049100000000    3.10643900000000
C        -2.94676000000000   -2.05545400000000    1.60908400000000
C        -2.32655100000000    1.51212400000000    2.09359200000000
C        -3.42339500000000    1.79390400000000    1.10657300000000
C        -4.01679100000000    0.28973900000000    0.80950100000000
C        -2.26998100000000    0.23913100000000    2.45641900000000
C        -3.39741400000000   -0.60652500000000    1.96850900000000
O         4.55119200000000    0.87888000000000   -2.34794400000000
H         5.15190000000000    0.13037500000000   -2.20570600000000
O         5.17499000000000    0.27437100000000    1.04973300000000
H         5.36396300000000    1.17646700000000    1.36766500000000
O         3.78416300000000   -3.43773100000000   -0.11416900000000
H         3.79924200000000   -4.16884000000000    0.52787100000000
O         3.34511400000000   -0.57786400000000   -3.92712700000000
H         3.63827400000000   -1.50887000000000   -3.87964300000000
O         3.50349100000000   -3.13997100000000    2.38689300000000
H         3.88573900000000   -2.66758800000000    3.14928800000000
O         4.15134300000000   -0.84132500000000    3.02990600000000
H         4.99062500000000   -0.52013900000000    2.64009300000000
O         3.10952100000000   -2.71307300000000   -2.70745400000000
H         3.57711500000000   -3.19347500000000   -2.00339200000000
O         4.10617800000000    2.27248300000000    1.95978900000000
H         3.61398300000000    2.85689600000000    2.56666900000000
O         3.94049800000000    3.45231000000000   -0.17048400000000
H         3.78418200000000    4.19052100000000    0.44208900000000
O         3.22671200000000    2.84158300000000   -2.43311900000000
H         4.18611300000000    2.68634200000000   -2.45125500000000
O        -0.05038800000000   -1.26637100000000   -4.94901700000000
H         0.24945100000000   -0.58406400000000   -5.57141900000000
O         1.47672500000000    0.80310200000000   -4.70226300000000
H         2.39928200000000    0.54689200000000   -4.89544500000000
O        -3.56502600000000   -2.00689000000000   -3.33052300000000
H        -4.40520000000000   -2.25817700000000   -2.91297000000000
O        -1.57901000000000   -3.54273800000000   -3.53006100000000
H        -2.33308000000000   -3.20942500000000   -4.04878600000000
O         1.71578100000000   -4.91951300000000    0.36448300000000
H         1.79567600000000   -5.37246800000000   -0.49094600000000
O         1.10391700000000   -4.59998700000000   -2.03293800000000
H         0.85706500000000   -4.46368500000000   -2.95633400000000
O        -1.41484200000000   -4.86292800000000   -1.34935900000000
H        -1.55558900000000   -5.03058800000000   -2.29742200000000
O        -4.55001300000000   -2.54397900000000   -1.00749200000000
H        -4.74084700000000   -2.90428200000000   -0.12576200000000
O         1.98524200000000    3.34759400000000    3.18990400000000
H         1.52265100000000    3.53739300000000    4.03144300000000
O         1.89746400000000   -0.34564500000000    4.87847600000000
H         1.81590900000000   -1.22788800000000    5.28046700000000
O        -0.02051400000000    2.81604100000000    4.54387300000000
H        -0.85074800000000    3.32228900000000    4.59544800000000
O        -0.52337900000000    0.49047700000000    5.18288300000000
H         0.26228300000000    0.70150600000000    5.71277900000000
O        -4.05141100000000   -2.91534800000000    1.78196700000000
H        -4.39227400000000   -2.72564400000000    2.67442500000000
O        -2.11264600000000   -3.45918100000000    3.47650600000000
H        -2.24478100000000   -4.34887700000000    3.10888200000000
O        -1.12982200000000   -4.83009700000000    1.57906000000000
H        -0.92469500000000   -5.31387600000000    0.76680500000000
O         0.79969200000000   -2.64727200000000    4.50662600000000
H         0.01777300000000   -3.20782300000000    4.59673500000000
O        -4.33443600000000   -0.72958900000000    3.01218400000000
H        -5.19653900000000   -0.44895800000000    2.65176600000000
O        -4.91703900000000    0.07493800000000   -1.42831900000000
H        -5.69272500000000    0.01978200000000   -0.84604200000000
O        -5.40265400000000    0.34952100000000    1.01096000000000
H        -5.56476600000000    1.24859900000000    1.38735000000000
O        -3.92799300000000    3.44870900000000   -0.54324500000000
H        -3.76032200000000    3.67206400000000   -1.47484300000000
O        -4.46699300000000    2.52700800000000    1.69625500000000
H        -4.68195300000000    3.25581400000000    1.08595100000000
O        -1.94036600000000    3.60788100000000    3.17887900000000
H        -2.23022600000000    4.25720800000000    2.51970100000000
O        -0.65289100000000    2.46074500000000   -4.32490300000000
H         0.01624400000000    2.04459900000000   -4.89032700000000
O        -2.56174800000000    3.28344500000000   -2.91596300000000
H        -2.23277100000000    3.34700000000000   -3.82753100000000
O        -1.10447900000000    4.90038000000000   -1.72357800000000
H        -0.40091900000000    5.14077100000000   -2.34752700000000
O         1.25390100000000    4.43610100000000   -2.03380300000000
H         2.10323400000000    4.11134300000000   -2.40368300000000
O         4.80051100000000   -1.06596900000000   -0.92847500000000
H         4.97449500000000   -1.78220700000000   -0.29962100000000
O         1.88798700000000    4.78289400000000    0.44049500000000
H         1.84196100000000    5.27784600000000   -0.39923400000000
O        -2.00772200000000    4.79341800000000    0.58973000000000
H        -2.02384800000000    5.38008800000000   -0.18578700000000
O        -2.10521700000000    0.33167700000000   -4.67517600000000
H        -2.73470000000000   -0.40178700000000   -4.68621400000000
