152
 energy: -338.971577414726 gnorm: 0.000378150663 xtb: 6.4.1 (a3dbbd7)
C         2.40032300000000   -2.18313500000000    1.95952900000000
C         3.33535700000000   -1.23371500000000    1.09849800000000
C         3.32748000000000   -1.83900800000000   -0.34409700000000
C         1.59214900000000   -2.93205300000000    0.84239600000000
C         1.84026800000000   -2.21844300000000   -0.54834800000000
C         0.24620600000000   -3.55866700000000    1.28586700000000
C        -0.61957600000000   -2.79698600000000    2.33165000000000
C         1.62909000000000   -1.51034900000000    3.18342500000000
C         0.07656800000000   -1.90386100000000    3.40039200000000
C         1.63474700000000    0.07256900000000    3.30241800000000
C         2.82287300000000    0.15960700000000    1.07374200000000
C         2.62887400000000    0.80988000000000    2.40386300000000
C         3.53366000000000    1.14560800000000    0.19976800000000
C         3.43482100000000   -0.87000300000000   -1.52533200000000
C         3.65317100000000    0.70201300000000   -1.29729300000000
C         1.96381300000000   -1.03359400000000   -1.97215300000000
C         1.32785700000000   -3.20259300000000   -1.60930700000000
C         1.40889600000000   -2.20853900000000   -2.78375000000000
C        -0.73787000000000   -3.86326200000000    0.05563900000000
C        -0.19521300000000   -3.51630500000000   -1.37743200000000
C        -1.66217800000000   -2.15129100000000    1.48327500000000
C        -2.10044500000000   -3.10738300000000    0.43001300000000
C        -2.35816600000000   -1.09947900000000    1.82264000000000
C        -0.69800900000000   -0.52315200000000    3.64137900000000
C         0.23055100000000    0.48269900000000    3.06946900000000
C        -2.12917000000000   -0.36569700000000    3.09488400000000
C        -0.11989300000000    1.68740900000000    2.69425000000000
C         2.32895000000000    2.33091500000000    2.06894900000000
C         2.76353300000000    2.46805900000000    0.56814300000000
C         0.84489700000000    2.80787400000000    2.40698300000000
C         1.57212700000000    2.58310000000000   -0.29428400000000
C         2.66321900000000    1.40093100000000   -2.32765500000000
C         1.86983400000000    0.19829000000000   -2.92444300000000
C         1.86456100000000    2.61027700000000   -1.75641500000000
C         0.54524100000000    0.60152200000000   -3.57323800000000
C        -0.07626600000000   -1.94222600000000   -3.23884900000000
C        -0.83266200000000   -2.30088000000000   -2.00193800000000
C        -0.46519600000000   -0.56638900000000   -3.86668000000000
C        -2.90413400000000   -2.38710800000000   -0.66875700000000
C        -2.00470200000000   -1.80249000000000   -1.69078600000000
C        -3.62757200000000   -0.62392100000000    1.19156800000000
C        -3.87364100000000   -1.17234400000000   -0.26444500000000
C        -2.65089500000000    1.09791400000000    2.75715700000000
C        -1.52410200000000    2.20884300000000    2.72169200000000
C        -3.47619100000000    0.91446400000000    1.41967100000000
C         0.00313800000000    3.71097800000000    1.40181400000000
C         0.58840400000000    3.70576900000000   -0.03656100000000
C        -1.48953000000000    3.19064000000000    1.51509600000000
C         0.46071800000000    2.86350700000000   -2.38111700000000
C        -0.18473400000000    1.56901600000000   -2.70874200000000
C        -0.35156100000000    3.70229600000000   -1.32541700000000
C        -1.86266700000000    0.05837300000000   -3.36229800000000
C        -2.77402800000000   -0.85113000000000   -2.53232200000000
C        -3.76442300000000   -0.14088400000000   -1.51674800000000
C        -1.45887500000000    1.26857500000000   -2.58713000000000
C        -2.80783600000000    1.51843300000000    0.24321300000000
C        -1.95329600000000    2.52976500000000    0.27343700000000
C        -1.82162700000000    3.21305600000000   -1.05853800000000
C        -3.45064200000000    1.34235700000000   -1.09888000000000
C        -2.48011100000000    2.16591200000000   -2.02100700000000
O         3.26803200000000   -3.14673400000000    2.50943400000000
H         3.25394900000000   -2.98452400000000    3.48076200000000
O         0.53554500000000   -4.78266200000000    1.92677700000000
H         1.48062600000000   -4.97848000000000    1.76353700000000
O         2.04725200000000   -4.37964100000000   -1.85890600000000
H         2.53234200000000   -4.24496500000000   -2.69427200000000
O         4.64627400000000   -1.26773700000000    1.58784400000000
H         4.73098000000000   -2.09432600000000    2.10010300000000
O        -0.50480000000000   -4.59754000000000   -2.23791800000000
H        -0.84173800000000   -5.32105900000000   -1.67723000000000
O        -0.99996200000000   -5.23773700000000    0.05656300000000
H        -0.61589500000000   -5.59495300000000    0.88449100000000
O         4.31884700000000   -2.81230300000000   -0.48247800000000
H         4.20754900000000   -3.45968800000000    0.23214800000000
O        -1.37134700000000   -3.78950300000000    3.01858900000000
H        -0.90810300000000   -3.99260300000000    3.84791600000000
O         0.01889400000000   -2.60569900000000    4.61640800000000
H        -0.30401400000000   -1.92446200000000    5.26487500000000
O         2.33115600000000   -1.95339100000000    4.31946900000000
H         1.67242100000000   -2.35458600000000    4.92367800000000
O         4.41186300000000   -1.28642400000000   -2.43373300000000
H         4.82817200000000   -2.07975600000000   -2.05546900000000
O         4.95908800000000    1.01142100000000   -1.69055400000000
H         5.22591100000000    0.31444300000000   -2.32128500000000
O         3.42889000000000    1.97598100000000   -3.35792800000000
H         3.58645800000000    1.28298600000000   -4.02237300000000
O         2.65379700000000    3.77975100000000   -2.00598200000000
H         3.14023300000000    3.60680800000000   -2.83391400000000
O         0.58500700000000    3.57876900000000   -3.58915100000000
H         0.28497400000000    4.48905900000000   -3.40046000000000
O        -3.16796500000000    2.84272800000000   -3.03485000000000
H        -3.25924100000000    2.23193100000000   -3.78716200000000
O        -4.73856000000000    1.52567600000000    1.53522800000000
H        -4.90654600000000    1.61850100000000    2.49219000000000
O        -2.34432000000000    4.26878900000000    1.79718200000000
H        -1.80359100000000    5.07811900000000    1.68092100000000
O        -0.40847000000000    5.00529700000000   -1.83298200000000
H        -1.26999800000000    5.37057400000000   -1.54952700000000
O        -2.64204300000000    4.36401000000000   -1.03596600000000
H        -3.36236200000000    4.21551400000000   -1.66978600000000
O        -3.58116500000000    1.45386500000000    3.73858900000000
H        -3.12088000000000    2.10247500000000    4.31423800000000
O        -1.69106300000000    2.98506600000000    3.88637600000000
H        -2.05293400000000    3.84276100000000    3.58088500000000
O        -0.00798900000000    5.02901500000000    1.85738900000000
H         0.38630800000000    4.99538800000000    2.75673300000000
O         3.65212000000000    3.56037400000000    0.48117500000000
H         3.62089100000000    3.89746200000000   -0.43093000000000
O         3.19005000000000    3.10267100000000    2.85661600000000
H         3.68418300000000    3.68090300000000    2.24594500000000
O         3.83741700000000    0.73701300000000    3.13016800000000
H         4.56788600000000    0.97698400000000    2.53354400000000
O        -4.67882700000000    2.05389300000000   -1.08570600000000
H        -5.00696700000000    2.07340700000000   -0.16709900000000
O        -2.57814700000000    0.52848300000000   -4.47770400000000
H        -2.98459500000000   -0.25189000000000   -4.88858100000000
O        -0.54945000000000   -0.78361200000000   -5.23493200000000
H        -0.23893700000000    0.02800800000000   -5.67352900000000
O         0.84161600000000    1.20951300000000   -4.81413500000000
H         0.91668600000000    2.16970500000000   -4.68055700000000
O         2.13822300000000   -2.72684500000000   -3.86245400000000
H         1.44268900000000   -3.01254900000000   -4.50603200000000
O        -5.01345000000000   -0.12951700000000   -2.15271100000000
H        -5.38119400000000    0.77163800000000   -2.02586900000000
O        -3.68842700000000   -3.34053800000000   -1.35143000000000
H        -4.02348800000000   -3.95293300000000   -0.67637800000000
O        -0.75918000000000   -0.33855200000000    5.04093400000000
H        -1.70245400000000   -0.30741600000000    5.28021000000000
O        -5.17970300000000   -1.67519400000000   -0.26386500000000
H        -5.60215600000000   -1.34778100000000   -1.08780300000000
O        -2.95816000000000   -0.92403000000000    4.09297900000000
H        -3.85451400000000   -0.99924500000000    3.72244400000000
O         2.42164900000000   -4.08629500000000    0.63591500000000
H         2.26569700000000   -4.49394800000000   -0.24168800000000
O         1.89131800000000    0.41173200000000    4.63543600000000
H         2.85493600000000    0.50611100000000    4.71794400000000
O        -3.00882000000000   -4.03577500000000    0.96899500000000
H        -2.67229100000000   -4.31659800000000    1.83597500000000
O        -4.67828300000000   -1.05550700000000    2.03518200000000
H        -5.33159800000000   -1.49830600000000    1.46253700000000
O         0.92514000000000    3.56309900000000    3.59432900000000
H         1.86102100000000    3.53491500000000    3.87883300000000
O        -0.33063900000000   -2.90631100000000   -4.24019700000000
H        -0.61386900000000   -3.73086200000000   -3.80370300000000
O        -3.52035100000000   -1.59203500000000   -3.46678200000000
H        -3.90221100000000   -2.36042900000000   -3.01261500000000
O         2.71751700000000   -0.20413900000000   -3.98599200000000
H         2.56135300000000   -1.12439600000000   -4.26375000000000
O         4.83774400000000    1.27301500000000    0.72631700000000
H         5.46058500000000    1.24815600000000   -0.02421000000000
O         1.33095700000000    4.90347600000000   -0.05618600000000
H         1.67884800000000    5.04798000000000   -0.94967000000000
