120
 energy: -265.951152213522 gnorm: 0.000360316005 xtb: 6.4.1 (a3dbbd7)
C        -2.92391200000000   -2.11462500000000   -0.28565000000000
C        -1.80094200000000   -3.00164500000000   -0.98310800000000
C        -1.54554700000000   -2.30907000000000   -2.36175100000000
C        -2.79337900000000   -0.80657800000000   -1.00709700000000
C        -2.11566500000000   -0.91857800000000   -2.13448700000000
C        -3.68537300000000    0.32981700000000   -0.67649500000000
C        -3.70432100000000    0.61975000000000    0.88572200000000
C        -2.87607800000000   -1.96872100000000    1.26097800000000
C        -3.26478000000000   -0.53739700000000    1.86590500000000
C        -1.50392500000000   -2.20181500000000    1.82901400000000
C        -0.53912700000000   -3.06276300000000   -0.19465600000000
C        -0.53323000000000   -2.88559000000000    1.22203700000000
C         0.72204900000000   -3.05797600000000   -0.64664500000000
C        -0.05118300000000   -2.28270600000000   -2.92033700000000
C         1.12808800000000   -2.94228100000000   -2.06575700000000
C         0.38298800000000   -0.85347700000000   -3.00766600000000
C        -1.94471200000000    0.15567900000000   -3.16072900000000
C        -0.44662200000000    0.23219500000000   -3.19862900000000
C        -3.21612400000000    1.67915100000000   -1.34313300000000
C        -2.42264100000000    1.61128900000000   -2.71587600000000
C        -2.71833400000000    1.74844200000000    0.99868500000000
C        -2.42469500000000    2.30591400000000   -0.23909200000000
C        -1.96563900000000    2.06918400000000    2.10042100000000
C        -2.02741800000000   -0.19854400000000    2.70927100000000
C        -1.19467400000000   -1.23684600000000    2.83597800000000
C        -1.81999700000000    1.15466900000000    3.29922800000000
C         0.03333700000000   -1.31752200000000    3.66816700000000
C         0.82427400000000   -3.16369200000000    1.80486100000000
C         1.73255200000000   -3.26860900000000    0.45854300000000
C         1.21535300000000   -2.12438400000000    2.91627700000000
C         2.95093700000000   -2.30130700000000    0.36653100000000
C         2.37887900000000   -1.95453600000000   -2.25169600000000
C         1.69881500000000   -0.67153000000000   -2.61065200000000
C         3.40111400000000   -1.75929800000000   -1.06487500000000
C         2.18052300000000    0.59447800000000   -2.40887300000000
C         0.00710600000000    1.50125800000000   -2.93157900000000
C        -1.07666700000000    2.52738100000000   -2.81050800000000
C         1.31444300000000    1.67349400000000   -2.54037100000000
C        -1.38443000000000    3.18520300000000   -0.36596800000000
C        -0.70685900000000    3.53510500000000   -1.65129800000000
C        -0.86758400000000    2.92429300000000    1.95149100000000
C        -0.58624500000000    3.50299900000000    0.72720100000000
C        -0.33872900000000    1.42922600000000    3.79956400000000
C         0.62946200000000    0.14566600000000    3.92679600000000
C         0.18876100000000    2.47816200000000    2.80574500000000
C         1.97110500000000   -1.00506500000000    2.30856700000000
C         2.70088500000000   -1.07200100000000    1.15320400000000
C         1.69926800000000    0.21434100000000    2.88401100000000
C         3.85249000000000   -0.20080200000000   -0.74475900000000
C         3.45371700000000    0.96240900000000   -1.71368000000000
C         3.20975700000000    0.06858500000000    0.56715800000000
C         1.70019000000000    2.70674400000000   -1.62722300000000
C         0.74326400000000    3.46987500000000   -1.11579000000000
C         0.76325400000000    4.04321800000000    0.28254800000000
C         3.08464100000000    2.44866900000000   -1.08888100000000
C         1.43801900000000    2.56772200000000    2.29483600000000
C         2.18782800000000    1.35812000000000    2.28655500000000
C         2.95577700000000    1.29250200000000    1.12456300000000
C         1.93745900000000    3.50889600000000    1.19172000000000
C         3.11274500000000    2.62888600000000    0.47007800000000
O        -4.18358900000000   -2.67706200000000   -0.61828400000000
H        -3.97570200000000   -3.56104400000000   -0.99219700000000
O        -4.98128800000000    0.05101900000000   -1.14738500000000
H        -5.16115900000000   -0.89170700000000   -1.02066200000000
O        -2.54518600000000   -0.25173400000000   -4.35842900000000
H        -3.08845600000000    0.48792000000000   -4.67683600000000
O        -2.31847500000000   -4.29492900000000   -1.16414500000000
H        -2.33054500000000   -4.46469200000000   -2.12242200000000
O        -3.29063800000000    2.06166300000000   -3.72049800000000
H        -4.06190400000000    2.44941300000000   -3.24528200000000
O        -4.36791900000000    2.47015700000000   -1.58032900000000
H        -5.12217600000000    2.01870400000000   -1.16985000000000
O        -2.35919000000000   -2.98741800000000   -3.28697800000000
H        -2.18888700000000   -2.59808000000000   -4.15893500000000
O        -4.99685100000000    1.07099700000000    1.19101500000000
H        -5.31781400000000    0.55031800000000    1.94704600000000
O        -4.32941000000000   -0.71139700000000    2.78197600000000
H        -4.42743000000000   -1.68133800000000    2.89004900000000
O        -3.73581800000000   -2.92430900000000    1.83588100000000
H        -4.36136900000000   -3.19212800000000    1.13449900000000
O        -0.05924200000000   -2.87534600000000   -4.18643200000000
H         0.31258800000000   -3.77081300000000   -4.07543300000000
O         1.43929900000000   -4.19120500000000   -2.60284300000000
H         2.23450400000000   -4.04373700000000   -3.15937600000000
O         3.07086000000000   -2.44488300000000   -3.37530000000000
H         4.00108100000000   -2.56463000000000   -3.10634300000000
O         4.55169700000000   -2.44771900000000   -1.44949700000000
H         5.29187400000000   -2.04297600000000   -0.95748400000000
O         5.24711600000000   -0.21251200000000   -0.60818600000000
H         5.59537400000000    0.23223500000000   -1.40676100000000
O         4.52226100000000    1.12630300000000   -2.60697400000000
H         4.61316800000000    2.09074600000000   -2.74942400000000
O         3.96986600000000    3.36778800000000   -1.66392000000000
H         4.59765100000000    3.61085800000000   -0.95080500000000
O         4.35092300000000    3.21474300000000    0.78212300000000
H         4.16152500000000    3.92687000000000    1.42648200000000
O         2.56692500000000    4.59924700000000    1.81027400000000
H         2.18353800000000    5.41167500000000    1.43762800000000
O         0.82280200000000    5.45321500000000    0.28059600000000
H         0.18128900000000    5.75743800000000   -0.37968900000000
O        -0.28543700000000   -1.93055900000000    4.87271200000000
H         0.40189200000000   -1.64824000000000    5.50389000000000
O         1.17826200000000    0.12760400000000    5.21433400000000
H         0.84605900000000    0.92376400000000    5.67361900000000
O         2.01947100000000   -2.75674200000000    3.87068900000000
H         1.55242600000000   -3.56844400000000    4.12777800000000
O        -0.39174100000000    2.02652400000000    5.07025100000000
H        -1.31753400000000    1.98679400000000    5.36759600000000
O         0.80440900000000   -4.41974500000000    2.42997200000000
H         1.12359000000000   -5.06535700000000    1.77285600000000
O        -0.99927300000000    4.85589600000000   -2.03145200000000
H        -1.00871400000000    4.85697200000000   -3.00709300000000
O        -1.15113100000000    3.29777300000000   -3.98594800000000
H        -2.01786600000000    3.10792600000000   -4.39404600000000
O        -2.71385000000000    1.41341600000000    4.36097800000000
H        -3.52438600000000    0.91218000000000    4.19951000000000
O         2.20180600000000   -4.58729400000000    0.35209200000000
H         3.17257700000000   -4.55650500000000    0.45766000000000
O         4.07379400000000   -2.98511900000000    0.90771400000000
H         4.02970600000000   -2.91686900000000    1.87160700000000
