136
 energy: -302.493705021379 gnorm: 0.000224686066 xtb: 6.4.1 (a3dbbd7)
C        -3.01621500000000    1.19280600000000    1.93610200000000
C        -2.02437700000000    0.40684200000000    2.92076900000000
C        -2.20214400000000   -1.09853300000000    2.60664400000000
C        -3.50483700000000    0.06298600000000    0.92914500000000
C        -2.55847500000000   -1.07769100000000    1.13827500000000
C        -3.84391300000000    0.43355900000000   -0.54099800000000
C        -3.18758800000000    1.72335400000000   -1.16192200000000
C        -2.46850000000000    2.57056300000000    1.33865500000000
C        -2.51032800000000    2.78325000000000   -0.23529800000000
C        -0.97560300000000    2.95901400000000    1.69653200000000
C        -0.59048300000000    0.73884300000000    2.77620700000000
C        -0.16317300000000    1.89283400000000    2.30993800000000
C         0.47201600000000    0.03117700000000    3.57890200000000
C        -0.98499400000000   -2.06203400000000    2.89942600000000
C         0.42012500000000   -1.53337200000000    3.49054400000000
C        -0.58986900000000   -2.69140700000000    1.59558600000000
C        -2.80599100000000   -2.36198000000000    0.43099500000000
C        -1.53044100000000   -3.25241800000000    0.57884300000000
C        -3.45110400000000   -0.72755800000000   -1.58725100000000
C        -2.97864200000000   -2.14877100000000   -1.10913400000000
C        -2.19589400000000    1.19173600000000   -2.14841800000000
C        -2.34115700000000   -0.10240500000000   -2.39013500000000
C        -1.30127900000000    2.10156400000000   -2.95020600000000
C        -1.06555800000000    2.99202800000000   -0.64739200000000
C        -0.26548700000000    3.18583800000000    0.37982900000000
C        -0.67632000000000    3.24712400000000   -2.06197500000000
C         1.16085900000000    3.62450100000000    0.36033900000000
C         1.28813600000000    2.15407200000000    2.58261500000000
C         1.78148000000000    0.74651200000000    3.07158000000000
C         2.02985600000000    2.78224800000000    1.36709600000000
C         2.39178600000000   -0.03494200000000    1.98622500000000
C         1.50629400000000   -2.28645700000000    2.59417200000000
C         0.71541800000000   -2.79491200000000    1.43538200000000
C         2.76487300000000   -1.45198300000000    2.16212400000000
C         1.41985300000000   -3.48153300000000    0.31568300000000
C        -0.83752300000000   -3.11175400000000   -0.74813300000000
C        -1.58449400000000   -2.48594900000000   -1.64095900000000
C         0.50126500000000   -3.74149000000000   -0.94316200000000
C        -1.56661100000000   -0.82063300000000   -3.47108600000000
C        -1.17828300000000   -2.28156200000000   -3.06227500000000
C        -0.12834000000000    1.23935900000000   -3.27110300000000
C        -0.25045900000000   -0.10786800000000   -3.51794500000000
C         0.89907600000000    3.16549800000000   -2.28129500000000
C         1.88053300000000    3.46659800000000   -1.06798200000000
C         1.05402800000000    1.76250000000000   -2.78478300000000
C         2.64868900000000    1.78372900000000    0.45677200000000
C         2.87137300000000    0.50028700000000    0.82180300000000
C         3.07035500000000    2.38565100000000   -0.82506200000000
C         3.40819200000000   -1.82212900000000    0.74301100000000
C         2.42690300000000   -2.47234600000000   -0.16671700000000
C         3.83803900000000   -0.42007800000000    0.14256300000000
C         1.28760600000000   -3.11957300000000   -2.14846600000000
C         0.40317400000000   -2.40237800000000   -3.25893600000000
C         0.82012700000000   -0.95799700000000   -3.32366400000000
C         2.28763900000000   -2.20219700000000   -1.45143800000000
C         2.12365100000000    0.92678700000000   -2.61394900000000
C         3.37625200000000    1.28441300000000   -1.89810900000000
C         3.91832800000000   -0.18376900000000   -1.39971200000000
C         2.01458200000000   -0.42080800000000   -2.89986400000000
C         3.09521900000000   -1.22936700000000   -2.24842300000000
O        -4.13691800000000    1.47730300000000    2.72940900000000
H        -4.27188400000000    2.44319700000000    2.70481600000000
O        -5.22423500000000    0.65687800000000   -0.64356300000000
H        -5.63668100000000    0.24223900000000    0.13826300000000
O        -3.91412200000000   -3.04557300000000    0.96650400000000
H        -4.38590600000000   -3.42039300000000    0.19671300000000
O        -2.34854000000000    0.68445600000000    4.25616300000000
H        -3.31119300000000    0.85027700000000    4.26640300000000
O        -3.89185900000000   -3.11992600000000   -1.54740300000000
H        -4.44713600000000   -2.68983800000000   -2.22651400000000
O        -4.55473100000000   -0.92184900000000   -2.44008400000000
H        -5.24327100000000   -0.29251500000000   -2.13997700000000
O        -3.32017900000000   -1.53743300000000    3.35806500000000
H        -3.11891700000000   -2.44692100000000    3.65239900000000
O        -4.14171800000000    2.37757600000000   -1.96764400000000
H        -4.79741100000000    2.79162300000000   -1.38802300000000
O        -3.16780500000000    4.01809800000000   -0.42670900000000
H        -2.77145500000000    4.45664400000000   -1.19587400000000
O        -3.30319000000000    3.54492700000000    1.90472000000000
H        -2.78535400000000    4.35592500000000    2.02100300000000
O        -1.44460800000000   -3.08040000000000    3.75266500000000
H        -0.95629400000000   -2.96010000000000    4.59592500000000
O         0.52463600000000   -2.00498600000000    4.80404300000000
H         1.21983100000000   -2.68728100000000    4.81105400000000
O         1.98937600000000   -4.67246400000000    0.79588800000000
H         1.97835400000000   -5.30553600000000    0.05824500000000
O         0.34516800000000   -5.12138800000000   -1.14228100000000
H        -0.37843400000000   -5.41768400000000   -0.56793400000000
O         1.96937100000000   -3.39625000000000    3.34084800000000
H         2.16516100000000   -4.10903000000000    2.70970400000000
O        -1.84505400000000   -4.59590000000000    0.83322500000000
H        -2.68720400000000   -4.59201600000000    1.32078700000000
O         2.08595400000000   -4.09558800000000   -2.76777000000000
H         1.67396000000000   -4.29473100000000   -3.63081800000000
O        -1.81164500000000   -3.22069700000000   -3.88880700000000
H        -2.37823300000000   -2.72175400000000   -4.50248800000000
O         0.61915200000000   -3.06905200000000   -4.47313800000000
H        -0.23597900000000   -3.49134000000000   -4.70093000000000
O         3.73409000000000   -1.57325800000000    3.17528700000000
H         4.23957900000000   -2.38165000000000    2.98671800000000
O         4.52259100000000   -2.63554600000000    0.94222900000000
H         5.27873100000000   -2.01946400000000    1.01660300000000
O         3.96325100000000   -1.89357100000000   -3.13366600000000
H         3.60731600000000   -2.78454100000000   -3.28421900000000
O        -2.28573800000000   -0.86138400000000   -4.67956600000000
H        -2.48171100000000    0.04683500000000   -4.94203400000000
O        -1.98550800000000    2.58212400000000   -4.07292600000000
H        -2.79708300000000    3.00890600000000   -3.75920000000000
O        -1.17585900000000    4.50014600000000   -2.43705500000000
H        -0.61833700000000    4.79203000000000   -3.18201700000000
O         1.16852600000000    4.07219100000000   -3.32246600000000
H         1.99565700000000    4.53445400000000   -3.09359900000000
O         2.51471400000000    4.68096800000000   -1.35000800000000
H         2.04805600000000    5.36886600000000   -0.83446100000000
O         1.18539800000000    4.97970900000000    0.73020800000000
H         1.95780800000000    5.08795400000000    1.32028000000000
O         5.10652900000000   -0.14979500000000    0.70448600000000
H         5.70742500000000    0.04360300000000   -0.03682600000000
O         5.26962900000000   -0.26767100000000   -1.74444500000000
H         5.32100900000000   -0.72842000000000   -2.59818300000000
O         3.04950900000000    3.65439200000000    1.84620800000000
H         3.02126900000000    3.61192700000000    2.81842700000000
O         1.39663000000000    3.07912200000000    3.65507500000000
H         1.46193000000000    2.55716200000000    4.47174500000000
O         2.70364700000000    0.94748900000000    4.10963800000000
H         3.17283200000000    0.11407400000000    4.26523600000000
O         4.29063200000000    1.78295200000000   -2.82355200000000
H         4.92422700000000    2.33480000000000   -2.33992000000000
O        -0.99740600000000    4.11100000000000    2.50563300000000
H        -0.18313200000000    4.13635100000000    3.03160200000000
O        -4.75135200000000   -0.43474800000000    1.41557900000000
H        -4.59778200000000   -0.84740200000000    2.28760600000000
O         0.33293700000000    0.44240500000000    4.91539000000000
H        -0.59068500000000    0.31589700000000    5.18239600000000
O         4.28798500000000    3.07953700000000   -0.66920500000000
H         4.24100100000000    3.60880800000000    0.13950600000000
136
 energy: -302.493705202212 gnorm: 0.000211248244 xtb: 6.4.1 (a3dbbd7)
C        -3.01616327456052    1.19278520969848    1.93605072351326
C        -2.02433350619927    0.40681506744898    2.92072967238623
C        -2.20213378125766   -1.09856218085305    2.60663884439020
C        -3.50483313859311    0.06294856247992    0.92916065989553
C        -2.55839952076162   -1.07768577112194    1.13825406344571
C        -3.84392172847472    0.43360273711812   -0.54096008439768
C        -3.18757911460206    1.72337367070974   -1.16193312091930
C        -2.46848024594736    2.57056755727867    1.33866486781402
C        -2.51035389834961    2.78328906498095   -0.23530272669802
C        -0.97557201975156    2.95899883081656    1.69653223747009
C        -0.59043270122788    0.73884789419872    2.77619674325246
C        -0.16314126072244    1.89288989739520    2.31001427391639
C         0.47206195286623    0.03117904828668    3.57889999789341
C        -0.98496450302914   -2.06202845345514    2.89941297798097
C         0.42015842850638   -1.53338789886241    3.49053510571125
C        -0.58984567728055   -2.69141153491650    1.59557359486886
C        -2.80596317474287   -2.36196508961818    0.43097228630353
C        -1.53042542348809   -3.25241942789728    0.57883361335568
C        -3.45105769993499   -0.72748948528222   -1.58721326416098
C        -2.97860747644958   -2.14872282815043   -1.10914784237887
C        -2.19585668766234    1.19178347804767   -2.14841993788007
C        -2.34112792108811   -0.10235659592365   -2.39013977527304
C        -1.30122892991680    2.10160225881010   -2.95021333456440
C        -1.06559620670286    2.99213212744674   -0.64740133561932
C        -0.26548564076867    3.18578616330667    0.37982806328095
C        -0.67633896607214    3.24721956809799   -2.06197363475200
C         1.16079178564048    3.62462712009131    0.36042207557813
C         1.28818206916722    2.15412072617710    2.58261738463359
C         1.78150210012364    0.74654187745861    3.07154417013408
C         2.02987544643308    2.78231364911786    1.36704039821982
C         2.39174792482128   -0.03491784072129    1.98616044404077
C         1.50633537105457   -2.28644622080165    2.59413447416323
C         0.71543619609895   -2.79493181304475    1.43536913454135
C         2.76486243515045   -1.45194183420522    2.16210172618872
C         1.41985392900416   -3.48156590504634    0.31566783828426
C        -0.83751335689867   -3.11176787525821   -0.74815052326624
C        -1.58446478667663   -2.48591799412598   -1.64096402047830
C         0.50126401463377   -3.74152443982340   -0.94317624992160
C        -1.56660271590861   -0.82060522731263   -3.47110021312064
C        -1.17826385863857   -2.28153566926935   -3.06228787221392
C        -0.12830380504359    1.23936800480975   -3.27110510682204
C        -0.25043840189527   -0.10785842413308   -3.51795490664690
C         0.89906568971612    3.16547392459507   -2.28131861750883
C         1.88040006177576    3.46616885176733   -1.06783714357828
C         1.05404712349539    1.76247054442813   -2.78474031976734
C         2.64878815053275    1.78376969332612    0.45675972179373
C         2.87140210418762    0.50029543824830    0.82176905023529
C         3.07060940913615    2.38559509493046   -0.82504248980621
C         3.40817496161046   -1.82216882063597    0.74301667752576
C         2.42690305136114   -2.47238954711061   -0.16673733417638
C         3.83810925003768   -0.42010318607967    0.14263816391717
C         1.28758456918007   -3.11959122285023   -2.14849344384933
C         0.40317762822930   -2.40237515406912   -3.25897578231808
C         0.82013752921894   -0.95800191868663   -3.32365491786838
C         2.28765907110599   -2.20225712082101   -1.45146832219985
C         2.12366003000300    0.92675479567954   -2.61388209645958
C         3.37635602939161    1.28441257605477   -1.89821784044909
C         3.91819231086533   -0.18380040258116   -1.39961817428511
C         2.01458357222319   -0.42082685434898   -2.89982898697557
C         3.09522063793831   -1.22941481671747   -2.24844389640453
O        -4.13690995142172    1.47722142924470    2.72931894484026
H        -4.27188138995732    2.44311499455427    2.70479018178521
O        -5.22425722106648    0.65690308449138   -0.64349746352724
H        -5.63668180233442    0.24224275224297    0.13832747412409
O        -3.91409284768301   -3.04558078453566    0.96647145418198
H        -4.38587451044592   -3.42040590748615    0.19668379214361
O        -2.34852696995627    0.68442596819047    4.25611204782430
H        -3.31118056619986    0.85026415678161    4.26633091979461
O        -3.89183582484542   -3.11988116924963   -1.54740702240219
H        -4.44712320519470   -2.68978846660460   -2.22650654762851
O        -4.55468854904892   -0.92180213910285   -2.44003422913074
H        -5.24324808118438   -0.29249948466065   -2.13989610062014
O        -3.32019120910950   -1.53743966347905    3.35807383203131
H        -3.11902337919082   -2.44697693561342    3.65230555262606
O        -4.14167612492131    2.37764572966889   -1.96765430943947
H        -4.79741828468955    2.79162131141573   -1.38804038832223
O        -3.16794786310477    4.01806584579288   -0.42673017817109
H        -2.77156739882876    4.45669438290885   -1.19582887438627
O        -3.30315890678876    3.54490497806323    1.90478274594537
H        -2.78535657665844    4.35595581434479    2.02088706563636
O        -1.44464011814968   -3.08037401466095    3.75263990808491
H        -0.95636765385083   -2.96007245955368    4.59592194810110
O         0.52463087226041   -2.00502228541566    4.80403166803834
H         1.21985250538117   -2.68728010443824    4.81108561468407
O         1.98936879284766   -4.67249100128459    0.79590202691061
H         1.97845160343998   -5.30553587100550    0.05825802148142
O         0.34515395251231   -5.12142195416657   -1.14230328340824
H        -0.37841252062164   -5.41772750500459   -0.56792439750993
O         1.96944683308268   -3.39622563448142    3.34081985826654
H         2.16499279914059   -4.10908836471847    2.70967655326487
O        -1.84506566319262   -4.59588823804557    0.83323364677023
H        -2.68724704665699   -4.59199548712888    1.32074033068255
O         2.08588958200705   -4.09562903796794   -2.76779760251759
H         1.67398721730942   -4.29460738446609   -3.63093512502417
O        -1.81162887356733   -3.22068586927363   -3.88880413490262
H        -2.37823641880842   -2.72175597524876   -4.50247497804631
O         0.61914623753475   -3.06899699792576   -4.47320888422343
H        -0.23596972156369   -3.49133929172396   -4.70096552617897
O         3.73410359295662   -1.57303875391018    3.17529975030912
H         4.23901735838554   -2.38202520502584    2.98737782661890
O         4.52254885517327   -2.63558215667205    0.94224201837806
H         5.27862972965633   -2.01946393710348    1.01682942724428
O         3.96316196173834   -1.89359875789157   -3.13381369395955
H         3.60741175006584   -2.78470182902073   -3.28408161304478
O        -2.28573262651820   -0.86137098431433   -4.67956567639821
H        -2.48177689712556    0.04683365127247   -4.94203109637703
O        -1.98546097918382    2.58215855479319   -4.07292734830280
H        -2.79707864989649    3.00886739218304   -3.75920580179539
O        -1.17585614340356    4.50023382760113   -2.43709645048670
H        -0.61845337006849    4.79200251041371   -3.18219505151995
O         1.16860032589740    4.07212885233572   -3.32252604220548
H         1.99556066693398    4.53460381427281   -3.09346780265150
O         2.51448433108296    4.68052606697344   -1.34993479662343
H         2.04762481700103    5.36841223481170   -0.83459716487340
O         1.18509457163778    4.97984699464832    0.73041255043507
H         1.95748030359295    5.08820038413216    1.32045653629048
O         5.10658209623690   -0.14972681150916    0.70459482812099
H         5.70741528247081    0.04408413390285   -0.03660299607998
O         5.26945383476516   -0.26746689781385   -1.74438427626856
H         5.32081344558473   -0.72837519649065   -2.59812674039707
O         3.04941878587073    3.65455302035467    1.84615273628209
H         3.02130865613893    3.61200627787612    2.81835540412961
O         1.39670895157485    3.07909064877412    3.65513058683296
H         1.46249662872076    2.55706370684325    4.47173306241875
O         2.70370653850891    0.94744662203381    4.10958461240510
H         3.17316114951022    0.11409915141125    4.26483793781016
O         4.29059854224532    1.78301025069294   -2.82377653017284
H         4.92449468627618    2.33455547538284   -2.34018010078379
O        -0.99734474784453    4.11110079685620    2.50550237877510
H        -0.18325905470767    4.13629751296750    3.03174888070678
O        -4.75137268020573   -0.43472822819962    1.41564887485907
H        -4.59780732366467   -0.84734334547712    2.28769982954742
O         0.33297908651596    0.44234948202016    4.91539584314830
H        -0.59066259526233    0.31590887428465    5.18236659485422
O         4.28825404064535    3.07944392784386   -0.66917838548454
H         4.24123695135596    3.60881663920720    0.13945567650531
