124
 energy: -275.133227171322 gnorm: 0.000272637901 xtb: 6.4.1 (a3dbbd7)
C         2.03495200000000   -0.06136100000000    2.91268700000000
C         2.73952800000000    1.13033200000000    2.13030500000000
C         3.47138700000000    0.40372800000000    0.93514300000000
C         1.90419100000000   -1.12227100000000    1.85310500000000
C         2.69822600000000   -0.87728000000000    0.82173100000000
C         1.34425800000000   -2.46250500000000    2.19444800000000
C        -0.06908300000000   -2.34463300000000    2.84857800000000
C         0.71835900000000    0.23748600000000    3.68013500000000
C        -0.38929900000000   -0.92776800000000    3.50173000000000
C        -0.07522300000000    1.58730400000000    3.29505000000000
C         1.73975500000000    2.08493300000000    1.60018300000000
C         0.66924700000000    2.67579600000000    2.47192700000000
C         1.74145500000000    2.59010300000000    0.36647700000000
C         3.55767800000000    1.07909300000000   -0.48557100000000
C         2.78579300000000    2.43485800000000   -0.67822900000000
C         2.92051800000000    0.18781600000000   -1.54403600000000
C         3.04350600000000   -1.90028800000000   -0.20423600000000
C         3.18755900000000   -1.28414500000000   -1.64408500000000
C         1.14503100000000   -3.34661800000000    0.91465500000000
C         1.82875100000000   -2.77305600000000   -0.29243300000000
C        -0.99042700000000   -2.69540900000000    1.67398400000000
C        -0.33800300000000   -3.22832600000000    0.65792000000000
C        -2.45386700000000   -2.36010300000000    1.67355000000000
C        -1.40047400000000   -0.27104300000000    2.61607800000000
C        -1.21335900000000    1.08481000000000    2.49297800000000
C        -2.35635700000000   -0.88428200000000    1.85102400000000
C        -1.95088400000000    1.80492200000000    1.59654500000000
C        -0.20719700000000    3.55322300000000    1.41494300000000
C         0.50535700000000    3.28193200000000    0.12862700000000
C        -1.73953000000000    3.23315200000000    1.25869900000000
C         0.00123500000000    3.41458500000000   -1.08424500000000
C         2.18611700000000    2.37363400000000   -2.12544000000000
C         2.19075400000000    0.88280200000000   -2.40088700000000
C         0.78695100000000    3.06286400000000   -2.33717800000000
C         1.51893000000000    0.34243300000000   -3.62033500000000
C         2.14374700000000   -2.07552700000000   -2.53563900000000
C         1.27989800000000   -2.78736300000000   -1.49749500000000
C         1.30860400000000   -1.23856500000000   -3.58825200000000
C        -0.95323200000000   -3.77313900000000   -0.58806300000000
C        -0.03611700000000   -3.44076800000000   -1.84135300000000
C        -3.22119200000000   -2.53833700000000    0.29081100000000
C        -2.37116100000000   -3.14255700000000   -0.90855300000000
C        -3.08367300000000   -0.17426500000000    0.92222500000000
C        -2.88576700000000    1.17670300000000    0.80142200000000
C        -3.89086000000000   -1.05659900000000    0.03341600000000
C        -2.44915600000000    3.35954100000000   -0.19682100000000
C        -1.47775800000000    3.51277700000000   -1.42350200000000
C        -3.47152200000000    2.07590600000000   -0.22617900000000
C        -0.21402300000000    2.08864700000000   -2.91232400000000
C         0.11318300000000    0.90583900000000   -3.50161500000000
C        -1.50240900000000    2.31264400000000   -2.35258800000000
C        -0.16461400000000   -1.37207300000000   -3.26921900000000
C        -0.78248600000000   -2.32644700000000   -2.51734500000000
C        -2.04490900000000   -2.10205300000000   -1.93532600000000
C        -0.81568400000000   -0.14056900000000   -3.41901200000000
C        -3.89341200000000   -0.41298700000000   -1.39404000000000
C        -3.68355500000000    1.23563700000000   -1.53196700000000
C        -2.44793700000000    1.33628000000000   -2.38035000000000
C        -2.72598800000000   -0.94661200000000   -2.16233300000000
C        -2.07259600000000    0.07247100000000   -2.86893100000000
O         2.98752500000000   -0.59155900000000    3.82544100000000
H         2.74389600000000   -0.24489900000000    4.70361600000000
O        -0.22319100000000   -3.34027400000000    3.82099200000000
H         0.66495100000000   -3.65712900000000    4.06020900000000
O         3.63532600000000    1.80775800000000    2.96002400000000
H         4.37137700000000    1.19812200000000    3.13327900000000
O        -0.89666200000000   -1.13167400000000    4.79187000000000
H        -1.44272400000000   -1.93088900000000    4.77283600000000
O         1.08381200000000    0.33031100000000    5.02404300000000
H         0.27938300000000    0.57736800000000    5.50982800000000
O         4.77464400000000    0.05765000000000    1.35584500000000
H         5.37629400000000    0.48964300000000    0.70927800000000
O         2.23655300000000   -3.11484600000000    3.07295200000000
H         2.72393100000000   -2.42123800000000    3.56055400000000
O         4.23216400000000   -2.56422300000000    0.16498200000000
H         4.69842500000000   -2.00126800000000    0.80612700000000
O         4.91240700000000    1.29247500000000   -0.77948100000000
H         5.02762400000000    2.26666600000000   -0.78700200000000
O         3.69760700000000    3.49706600000000   -0.56690400000000
H         3.71351500000000    3.94411000000000   -1.43195100000000
O         3.14187100000000    2.99155900000000   -2.95091200000000
H         2.84232400000000    2.92005100000000   -3.86694500000000
O         4.47365600000000   -1.52354400000000   -2.14446400000000
H         4.94924700000000   -2.02671800000000   -1.45127500000000
O         2.22565200000000    0.74832900000000   -4.75395300000000
H         2.12312800000000    0.03592200000000   -5.40993400000000
O         0.99464000000000    4.20206000000000   -3.13348100000000
H         0.16348800000000    4.70098600000000   -3.13877300000000
O         1.57947200000000   -1.70358100000000   -4.88441800000000
H         2.17932200000000   -2.46940000000000   -4.78841700000000
O         2.84861900000000   -3.06775200000000   -3.25204500000000
H         3.79235500000000   -2.80010600000000   -3.20719400000000
O        -3.14784900000000   -2.95461100000000    2.73017400000000
H        -3.38734700000000   -3.85540900000000    2.47543700000000
O        -1.13762800000000   -5.15839100000000   -0.44768300000000
H        -0.27199000000000   -5.56084800000000   -0.29651000000000
O         1.49705800000000   -4.68661200000000    1.13653200000000
H         2.23309900000000   -4.69287100000000    1.76644600000000
O         0.13255000000000   -4.61703300000000   -2.58633200000000
H         0.85030100000000   -4.48007300000000   -3.21688000000000
O        -4.27037200000000   -3.42470400000000    0.54495200000000
H        -4.36012700000000   -3.97212700000000   -0.26615400000000
O        -3.16618100000000   -4.14184000000000   -1.51532900000000
H        -2.66163500000000   -4.97310400000000   -1.46413100000000
O         1.25347400000000    3.56750000000000    3.39827600000000
H         2.21264900000000    3.44577200000000    3.38774700000000
O        -0.54095100000000    2.15478200000000    4.48808800000000
H        -0.00351300000000    2.95336800000000    4.64305200000000
O        -0.05655600000000    4.90453600000000    1.71204500000000
H        -0.64767400000000    5.09669700000000    2.45811600000000
O        -2.42461400000000    4.06044200000000    2.16142600000000
H        -2.85452900000000    4.75848600000000    1.63412000000000
O        -3.24578100000000    4.50881400000000   -0.17063900000000
H        -4.15299700000000    4.18176900000000    0.04309600000000
O        -1.74388900000000    4.68845200000000   -2.15188300000000
H        -2.41439000000000    5.19117600000000   -1.66179500000000
O        -4.82016200000000    1.74811700000000   -2.17158100000000
H        -5.28593300000000    0.97460000000000   -2.55351800000000
O        -5.09930600000000   -0.72227600000000   -2.03121900000000
H        -5.73026000000000   -0.92591500000000   -1.30920900000000
O        -5.23664400000000   -1.12514300000000    0.43404000000000
H        -5.35930800000000   -1.98960700000000    0.87010300000000
O        -4.72414200000000    2.56860300000000    0.17909200000000
H        -5.31696600000000    2.45190000000000   -0.59252300000000
