148
 energy: -329.928391552563 gnorm: 0.000246508702 xtb: 6.4.1 (a3dbbd7)
C         2.75055200000000   -2.72514600000000    0.53005300000000
C         1.96431700000000   -2.71690400000000    1.94830000000000
C         2.17618300000000   -1.28011900000000    2.50102900000000
C         3.46360900000000   -1.31564600000000    0.48315600000000
C         2.67404400000000   -0.43245100000000    1.38569400000000
C         3.79572700000000   -0.67754300000000   -0.88096400000000
C         2.92354300000000   -1.12703400000000   -2.11368200000000
C         1.89005100000000   -3.15484400000000   -0.68692000000000
C         2.19073700000000   -2.52490400000000   -2.08864200000000
C         0.40584700000000   -3.00293000000000   -0.54555100000000
C         0.45703400000000   -3.16677700000000    1.92843600000000
C        -0.21080800000000   -3.02991700000000    0.60775400000000
C        -0.59282400000000   -2.44951400000000    2.86902000000000
C         0.96319700000000   -0.56545600000000    2.94504400000000
C        -0.27348400000000   -1.01220100000000    3.02400000000000
C         1.16085300000000    0.80591400000000    3.47711200000000
C         3.21566600000000    0.89683800000000    1.78184400000000
C         2.10482800000000    1.67759900000000    2.57362000000000
C         3.63068600000000    0.92847100000000   -0.85177100000000
C         3.53664100000000    1.74485000000000    0.49352900000000
C         2.05280000000000    0.06429300000000   -2.36425100000000
C         2.40745100000000    1.14697500000000   -1.70089200000000
C         1.10188600000000   -0.01933000000000   -3.50330900000000
C         0.74670000000000   -2.50270200000000   -2.82648300000000
C        -0.24239600000000   -3.25670600000000   -1.87165900000000
C         0.20702000000000   -1.14238100000000   -3.07564600000000
C        -1.78982400000000   -2.94793800000000   -1.91320000000000
C        -1.67219600000000   -3.27011700000000    0.76095000000000
C        -2.00535600000000   -2.63076500000000    2.18784900000000
C        -2.46128200000000   -2.80235900000000   -0.46832900000000
C        -2.89426800000000   -1.32583400000000    2.11061200000000
C        -1.19523500000000   -0.01404000000000    3.67441800000000
C        -0.32900400000000    1.32010000000000    3.60068600000000
C        -2.63580200000000   -0.03961000000000    3.03129800000000
C        -0.69500900000000    2.10972500000000    2.40745700000000
C         1.40034400000000    2.36015900000000    1.45898500000000
C         2.40183800000000    2.86346300000000    0.47127800000000
C         0.23159600000000    3.16822500000000    1.85528400000000
C         1.93965000000000    2.50385100000000   -2.09347200000000
C         1.76635700000000    3.44057200000000   -0.83072000000000
C         0.16267300000000    1.22282900000000   -3.69222900000000
C         0.52717400000000    2.44515000000000   -2.77919600000000
C        -1.04984300000000   -0.75849400000000   -2.94671700000000
C        -2.22135500000000   -1.62538400000000   -2.66786400000000
C        -1.29510300000000    0.61263300000000   -3.50320900000000
C        -2.81246800000000   -1.35533100000000   -0.39238200000000
C        -2.98142400000000   -0.71424800000000    0.73684300000000
C        -3.25851100000000   -0.89324600000000   -1.73669400000000
C        -3.00358000000000    1.20444400000000    2.11112500000000
C        -1.82635100000000    2.02496200000000    1.73651600000000
C        -3.67315000000000    0.60942600000000    0.82099600000000
C        -0.53939800000000    3.82094700000000    0.66890200000000
C         0.18732200000000    3.70055300000000   -0.71741700000000
C        -0.37443900000000    2.63306400000000   -1.60344300000000
C        -1.99325100000000    3.13862000000000    0.74169200000000
C        -2.27726700000000    1.42974800000000   -2.64051400000000
C        -3.44386200000000    0.64876200000000   -1.90426800000000
C        -3.66799600000000    1.46990900000000   -0.49701900000000
C        -1.59627900000000    2.16385600000000   -1.53975900000000
C        -2.61499400000000    2.64509500000000   -0.57445300000000
O         3.76020300000000   -3.69426500000000    0.58015200000000
H         4.38578200000000   -3.42303600000000    1.27109800000000
O         5.14307200000000   -0.97027700000000   -1.16914500000000
H         5.15353600000000   -1.36274400000000   -2.06453400000000
O         4.36946800000000    0.76291700000000    2.59027100000000
H         5.03129600000000    1.38684300000000    2.24562700000000
O         2.63483900000000   -3.62349700000000    2.78143500000000
H         2.95171700000000   -3.11322400000000    3.55163000000000
O         4.76688400000000    2.36584000000000    0.73021100000000
H         5.15087200000000    2.54792300000000   -0.14940800000000
O         4.72470100000000    1.47742600000000   -1.55101400000000
H         5.35715600000000    0.75233700000000   -1.71030700000000
O         3.08106200000000   -1.33050500000000    3.61475900000000
H         3.92731900000000   -0.94517800000000    3.32183100000000
O         3.84054800000000   -1.18086100000000   -3.19777500000000
H         3.34236000000000   -0.97069300000000   -4.01049700000000
O         3.01224800000000   -3.42997700000000   -2.76433200000000
H         2.72030000000000   -3.44281700000000   -3.69374100000000
O         2.03190700000000   -4.56372700000000   -0.81222600000000
H         2.97174500000000   -4.77448000000000   -0.69299600000000
O        -0.56189500000000   -3.01710300000000    4.14209100000000
H        -1.34047600000000   -3.59920800000000    4.20920100000000
O         0.40277200000000   -4.54467000000000    2.23622700000000
H         1.22558000000000   -4.74846300000000    2.71807200000000
O        -3.55635700000000   -0.09555500000000    4.08479700000000
H        -4.04500500000000    0.74647700000000    4.08650000000000
O        -1.29519800000000   -0.31778400000000    5.03785400000000
H        -2.23908600000000   -0.48721600000000    5.22270700000000
O         2.69588200000000    2.64441400000000    3.43368000000000
H         2.69299500000000    2.24245300000000    4.32784300000000
O         1.72494700000000    0.75438800000000    4.76696200000000
H         2.26357000000000   -0.05552700000000    4.81418500000000
O        -0.51466500000000    2.10046600000000    4.73153700000000
H        -0.51330200000000    1.48431200000000    5.48526600000000
O        -3.91852100000000    2.00549900000000    2.82240400000000
H        -3.85785100000000    2.91084400000000    2.47295500000000
O         1.80877200000000   -0.30799700000000   -4.68587000000000
H         1.55006200000000    0.38217400000000   -5.32724000000000
O         2.87137800000000    3.03639300000000   -2.98496100000000
H         3.14052600000000    3.90156600000000   -2.62002200000000
O         0.30366100000000    1.65276300000000   -5.02200900000000
H        -0.54721000000000    1.45378700000000   -5.46129500000000
O         0.39320100000000    3.62318800000000   -3.55096500000000
H         0.63685500000000    3.39151000000000   -4.46363600000000
O        -2.89467400000000    4.07770900000000    1.29643000000000
H        -2.37437400000000    4.91294500000000    1.35836700000000
O        -0.72229100000000    5.17831300000000    0.94330200000000
H        -0.14187900000000    5.39312900000000    1.69872500000000
O         0.51325500000000    4.17281000000000    2.80459300000000
H         1.27416400000000    3.88494200000000    3.33882800000000
O         2.40360100000000    4.64464700000000   -1.12457100000000
H         1.70504900000000    5.33139500000000   -1.14052400000000
O        -3.24164700000000    3.74160900000000   -1.20724900000000
H        -3.68212400000000    4.25283900000000   -0.50664700000000
O        -5.02091100000000    0.32149600000000    1.13932500000000
H        -5.55081900000000    1.04969500000000    0.75972300000000
O        -4.93739600000000    2.06220300000000   -0.55819200000000
H        -5.24944700000000    1.92890200000000   -1.48147500000000
O        -4.53762200000000   -1.45353200000000   -1.98046900000000
H        -4.55426400000000   -2.34952500000000   -1.59926000000000
O        -4.59180500000000    0.86945100000000   -2.67508100000000
H        -5.07586200000000    0.02573200000000   -2.72239200000000
O        -1.82110100000000    0.47836500000000   -4.80380900000000
H        -2.54327300000000   -0.16813200000000   -4.77753600000000
O        -1.89236000000000   -4.66170500000000    0.81907500000000
H        -1.28475700000000   -5.02615800000000    1.48490300000000
O        -3.68828700000000   -3.50278600000000   -0.49372000000000
H        -3.51380000000000   -4.38240500000000   -0.11917100000000
O        -2.44327000000000   -3.98567700000000   -2.58765100000000
H        -1.92885000000000   -4.79649400000000   -2.44277000000000
O        -0.14211100000000   -4.63803500000000   -2.18497800000000
H         0.65431900000000   -4.97964600000000   -1.72569400000000
O         4.69697000000000   -1.50386500000000    1.18976700000000
H         5.41667400000000   -1.42194100000000    0.54011400000000
O         0.86062200000000   -3.17439600000000   -4.04978300000000
H         0.51075900000000   -4.07407900000000   -3.90205500000000
O        -2.82098600000000   -1.91365400000000   -3.90519600000000
H        -3.09463000000000   -2.84680800000000   -3.87779600000000
O        -0.05555200000000    4.94809900000000   -1.32914900000000
H        -0.07045300000000    4.81226600000000   -2.29449300000000
O        -2.82486500000000    2.37106600000000   -3.52505200000000
H        -3.24788800000000    3.07338100000000   -3.00579200000000
O        -2.66912700000000   -3.59830200000000    2.94586700000000
H        -3.61179700000000   -3.35889900000000    2.95652700000000
O        -4.18671400000000   -1.80943100000000    2.40976900000000
H        -4.83315100000000   -1.12036200000000    2.17707000000000
O         2.91545800000000    4.01611800000000    1.11077500000000
H         3.43545900000000    3.75398600000000    1.88648500000000
