136
 energy: -302.496114294299 gnorm: 0.000264454680 xtb: 6.4.1 (a3dbbd7)
C         3.22242100000000   -1.87914900000000   -1.17141500000000
C         2.22475000000000   -2.90361400000000   -0.45129400000000
C         2.31958600000000   -2.57929200000000    1.06653800000000
C         3.59430900000000   -0.82283700000000   -0.03438300000000
C         2.62748000000000   -1.11698400000000    1.07010000000000
C         3.85282800000000    0.68756800000000   -0.37189400000000
C         3.25706500000000    1.27576100000000   -1.70312800000000
C         2.72026500000000   -1.34335800000000   -2.56826800000000
C         2.67026400000000    0.24772300000000   -2.75138000000000
C         1.24884000000000   -1.82556000000000   -3.10963100000000
C         0.80393100000000   -2.85059000000000   -0.87973300000000
C         0.47928500000000   -2.92339700000000   -2.33504700000000
C        -0.23028500000000   -3.13638500000000   -0.10801600000000
C         1.09327600000000   -2.87013100000000    2.00764200000000
C        -0.22747400000000   -3.41648600000000    1.35184700000000
C         0.62879300000000   -1.58239400000000    2.65839900000000
C         2.76039600000000   -0.36161100000000    2.34117900000000
C         1.57969100000000   -0.64499700000000    3.32543100000000
C         3.30714100000000    1.66828300000000    0.77396000000000
C         2.52131200000000    1.04354600000000    1.88048900000000
C         2.23726300000000    2.31263500000000   -1.23754100000000
C         2.30224900000000    2.54539800000000    0.05609400000000
C         1.29300300000000    2.96703000000000   -2.20730000000000
C         1.21221900000000    0.54266400000000   -2.87009700000000
C         0.44900600000000   -0.58280000000000   -3.05224200000000
C         0.59731700000000    1.75447000000000   -2.71511500000000
C        -0.91217300000000   -0.49973800000000   -3.00199400000000
C        -1.14555900000000   -2.92485500000000   -2.37210600000000
C        -1.52426900000000   -3.20868700000000   -0.87688600000000
C        -1.85374700000000   -1.64711900000000   -2.97811500000000
C        -2.35594000000000   -2.17120100000000   -0.21128700000000
C        -1.38562200000000   -2.67548300000000    2.11656000000000
C        -0.69024600000000   -1.47774100000000    2.67644700000000
C        -2.64484600000000   -2.35190800000000    1.25536200000000
C        -1.48208400000000   -0.50028300000000    3.46040200000000
C         0.93656600000000    0.76270200000000    3.61555300000000
C         1.48884000000000    1.62247900000000    2.47950100000000
C        -0.64813900000000    0.82683100000000    3.70533000000000
C         1.50596100000000    3.57375800000000    0.78399700000000
C         1.01419400000000    3.02029500000000    2.19544400000000
C         0.13038700000000    3.84626800000000   -1.57714700000000
C         0.18723400000000    3.99823500000000   -0.00481100000000
C        -0.77468200000000    1.84901700000000   -2.65815300000000
C        -1.53237600000000    0.71848400000000   -2.78893800000000
C        -1.25149800000000    3.17970600000000   -2.19529600000000
C        -3.10693700000000   -0.97572300000000   -2.24074900000000
C        -3.03995200000000   -1.19507700000000   -0.77467500000000
C        -2.99749400000000    0.58115400000000   -2.56860800000000
C        -3.46053500000000   -1.05124600000000    1.65030600000000
C        -2.74133900000000   -0.04591200000000    2.62700400000000
C        -3.90997700000000   -0.44623100000000    0.18865000000000
C        -1.11384800000000    1.68538500000000    2.57454900000000
C        -0.53511100000000    2.97493600000000    2.10927800000000
C        -0.83955600000000    3.16514400000000    0.65865600000000
C        -2.17096300000000    1.12830000000000    1.92457000000000
C        -2.47019400000000    2.91393600000000   -1.25567000000000
C        -3.50093900000000    1.64410800000000   -1.51069500000000
C        -3.79384700000000    1.10103000000000   -0.03530200000000
C        -1.92817800000000    2.61919100000000    0.09116700000000
C        -2.66025200000000    1.63317600000000    0.74413800000000
O         4.40170200000000   -2.62112600000000   -1.37319100000000
H         4.61505000000000   -2.57829400000000   -2.32237300000000
O         4.23495300000000    2.04992900000000   -2.35126600000000
H         5.08498000000000    1.58812900000000   -2.29287600000000
O         2.63052600000000   -4.22128600000000   -0.72590900000000
H         3.60575400000000   -4.21655600000000   -0.73867000000000
O         3.29538100000000    0.47783400000000   -3.99210600000000
H         3.32809500000000    1.43755200000000   -4.12408500000000
O         3.64932000000000   -1.84582900000000   -3.48700000000000
H         3.32160200000000   -1.61138800000000   -4.37161300000000
O         3.45324200000000   -3.27220900000000    1.56971800000000
H         3.14998700000000   -3.72097600000000    2.38699600000000
O         5.23878500000000    0.89157200000000   -0.48998300000000
H         5.68932200000000    0.14630000000000   -0.05740200000000
O         3.96873800000000   -0.56002000000000    3.04552800000000
H         4.69086100000000   -0.58515000000000    2.39890900000000
O         1.50043900000000   -3.77713500000000    2.99581400000000
H         1.04523600000000   -4.61912000000000    2.77916300000000
O        -0.31277600000000   -4.80019200000000    1.56390000000000
H        -1.06195200000000   -4.94611900000000    2.16864500000000
O        -1.76978800000000   -3.51839900000000    3.18230300000000
H        -1.99282100000000   -2.96541200000000    3.94715600000000
O         2.03660000000000   -1.19137000000000    4.53057400000000
H         2.99795400000000   -1.31594900000000    4.43648200000000
O        -1.84699000000000   -1.10672400000000    4.66358200000000
H        -2.03369200000000   -0.38043800000000    5.28464900000000
O        -3.48499200000000   -3.48627800000000    1.35032700000000
H        -4.34916300000000   -3.17086500000000    1.67171800000000
O        -1.02668400000000    1.31403500000000    4.96053100000000
H        -0.20643400000000    1.62790600000000    5.39224300000000
O         1.45056100000000    1.23889200000000    4.82874800000000
H         1.81749800000000    0.45477700000000    5.28836800000000
O         1.95318300000000    3.63966100000000   -3.23876200000000
H         2.35228000000000    4.44312900000000   -2.88286800000000
O         2.28617500000000    4.72642900000000    0.97377600000000
H         2.55505500000000    4.72584600000000    1.91180800000000
O         4.36220200000000    2.38549000000000    1.34469400000000
H         5.04608300000000    2.49235300000000    0.66327000000000
O         1.44734600000000    3.89240800000000    3.19885300000000
H         0.64438500000000    4.23469000000000    3.63741100000000
O         0.26336300000000    5.11957800000000   -2.13463900000000
H        -0.12898200000000    5.74590100000000   -1.49766300000000
O        -0.04837700000000    5.35808800000000    0.32319000000000
H         0.83301800000000    5.72473000000000    0.55190100000000
O         0.89340300000000   -4.17089100000000   -2.85130700000000
H         1.51724100000000   -4.56848100000000   -2.21850100000000
O         1.40351400000000   -2.24186800000000   -4.43730300000000
H         1.32856900000000   -3.21485500000000   -4.42939300000000
O        -1.54827900000000   -3.99702000000000   -3.16856600000000
H        -1.75376200000000   -4.73985300000000   -2.57597500000000
O        -2.13031800000000   -4.47476400000000   -0.80377600000000
H        -2.72762000000000   -4.47935300000000   -0.03426500000000
O        -3.70754500000000    0.81020000000000   -3.76057300000000
H        -4.33739700000000    0.06452900000000   -3.83923600000000
O        -4.28940400000000   -1.47871800000000   -2.78175000000000
H        -4.01800200000000   -1.97904200000000   -3.58015700000000
O        -2.31656600000000   -1.95743300000000   -4.27108900000000
H        -2.01599500000000   -2.85969500000000   -4.47623400000000
O        -5.22493600000000   -0.83377000000000   -0.04117600000000
H        -5.79336800000000   -0.10871800000000    0.27276400000000
O        -5.00330100000000    1.65961400000000    0.44337700000000
H        -5.33257500000000    2.24770700000000   -0.25805300000000
O        -4.69551200000000    2.18712400000000   -1.97474400000000
H        -4.69771700000000    2.04642800000000   -2.94337900000000
O        -3.24880300000000    4.07127000000000   -1.17340500000000
H        -3.30028900000000    4.42999200000000   -2.07467700000000
O        -1.71066900000000    4.00309900000000   -3.23032900000000
H        -0.96553300000000    4.55883900000000   -3.51464200000000
O        -4.63141000000000   -1.48912500000000    2.27657000000000
H        -4.71799700000000   -0.99106700000000    3.11203100000000
O        -3.70183400000000    0.40585500000000    3.57191000000000
H        -4.15400300000000    1.17846200000000    3.20793200000000
O         4.85830200000000   -1.23665700000000    0.52881100000000
H         4.78793600000000   -2.18648300000000    0.73671100000000
O        -1.08109000000000    4.05282200000000    2.87042600000000
H        -1.23816800000000    4.79530900000000    2.26780200000000
