62
 energy: -137.556089996656 gnorm: 0.000099007560 xtb: 6.4.1 (a3dbbd7)
C         0.21853091019871   -0.06500533708192   -3.52068824601252
C         0.27870605311274    1.33149615857481   -3.22719788355133
C        -1.03697438286253    1.77165701036903   -2.83367468576868
C        -1.22482700060729   -0.52424217184095   -3.51885801247423
C        -1.92378940662294    0.65857731273506   -2.88283396776693
C        -1.39390246625336   -1.75785240734941   -2.70198501249571
C        -0.32718236716224   -2.57864855653507   -2.34116373422260
C         1.25859500906437   -0.88240162749928   -3.15107737860311
C         1.01702840858942   -2.19503383781904   -2.56199305370039
C         2.42310154133528   -0.32958473679199   -2.51586791651335
C         1.40519401107036    1.88676871261936   -2.62754497194554
C         2.50091358253294    1.03516263275058   -2.26325589768625
C         1.25744221516082    2.88847273039990   -1.59948946046959
C        -1.17612021471808    2.75305211529648   -1.85211605523656
C        -0.00885273196582    3.31206638346375   -1.22125233956073
C        -2.20030125142734    2.61918790908534   -0.85756998705292
C        -2.89210366940360    0.51773181397295   -1.91476574736264
C        -3.03970615699181    1.51124980413180   -0.88533037686157
C        -2.42312910661802   -1.87653953564006   -1.70815792455335
C        -3.17270023079748   -0.77825535202785   -1.31998270812884
C        -0.67238850301589   -3.26782213582139   -1.10698461510710
C        -1.98505056787119   -2.83091823226423   -0.71784092918961
C         0.29056005532994   -3.49998133278465   -0.14922694082863
C         1.99600765013905   -2.43107264548550   -1.58830310277234
C         2.88307615030969   -1.27408259847912   -1.53530296331708
C         1.65998714662658   -3.05775887519786   -0.36468948779021
C         3.41068229859449   -0.83465664474259   -0.34576022269503
C         3.03005049911467    1.49498962471378   -1.01141505555083
C         2.26372975472205    2.64583525420567   -0.59860523653232
C         3.45581107303571    0.56546141511946   -0.06719234105640
C         1.96671372234873    2.83572370033116    0.74368011189464
C        -0.31642833068469    3.51999503116548    0.17330181624034
C        -1.67312219696475    3.09067207576591    0.39722749333682
C         0.65364803081450    3.28609907171614    1.13816278373725
C        -2.00901304742514    2.43874244280165    1.57766883056520
C        -3.39840314396879    0.84492372525816    0.33854275292772
C        -3.47543243649895   -0.57022480001522    0.06965063769078
C        -2.89242049321312    1.29690410253018    1.54894728249466
C        -2.28578684137197   -2.63913923336372    0.62315966826470
C        -3.04516120635587   -1.48107568572143    1.02823395955954
C        -0.01501008751792   -3.30590383811744    1.24159949761052
C        -1.27969384688739   -2.88172897609737    1.62383619063387
C         2.17918218885213   -2.61939128696788    0.85186439183851
C         3.26734722429662   -1.60736217862905    0.94909307386959
C         1.16181390445398   -2.74091764874356    1.85750852090048
C         3.14668528849815    0.76291245472853    1.32745877522569
C         2.42096388156115    1.88573978413317    1.72559607332951
C         2.91177604943955   -0.50733492521094    1.92668913984175
C         0.30356932139560    2.61406886915379    2.36327606091571
C        -1.00466093602807    2.19657561240566    2.57661211557198
C         1.39946554247186    1.75122922736236    2.72280186212315
C        -2.43969428762373    0.35457417518224    2.53917146666643
C        -2.51027852949187   -1.01003902354270    2.27931960019243
C        -1.41805525410653   -1.87339381585209    2.64656692656626
C        -1.26613849123929    0.90478620241419    3.16647347013674
C         1.02601567442353   -1.79062455208539    2.85614263154526
C         1.91560999182510   -0.64148244253928    2.86706071612123
C         1.14605557209492    0.50201321476506    3.27788661606857
C        -0.28214390484563   -1.34017297062624    3.24575873325309
C        -0.20827980879327    0.07574362599501    3.51146455385348
Cl        4.84811582192343   -2.39972948332103    1.40846548074680
Cl       -1.82120970721600   -0.79159552747571   -5.22499073032206
