152
 energy: -339.014176803090 gnorm: 0.000374785051 xtb: 6.4.1 (a3dbbd7)
C         3.41422800000000    0.74857800000000   -1.75848500000000
C         3.84369600000000   -0.26215000000000   -0.57692100000000
C         3.56870300000000    0.52868600000000    0.78241600000000
C         2.88653400000000    2.02382400000000   -0.97565900000000
C         2.54033900000000    1.54490100000000    0.39577300000000
C         1.86782100000000    2.98546400000000   -1.66380600000000
C         0.90100800000000    2.35946200000000   -2.70061000000000
C         2.55304500000000    0.15471400000000   -2.95257000000000
C         1.26517700000000    1.00381100000000   -3.36856000000000
C         1.97659500000000   -1.32597600000000   -2.87568600000000
C         3.23639500000000   -1.69466000000000   -0.54489100000000
C         2.57193500000000   -2.29722900000000   -1.82950400000000
C         2.25468300000000   -1.94317600000000    0.55373800000000
C         3.22513100000000   -0.22334300000000    2.12797400000000
C         2.66235500000000   -1.69034800000000    1.95579900000000
C         2.13914300000000    0.52808100000000    3.01482500000000
C         2.23010800000000    2.61723500000000    1.38066600000000
C         1.79626900000000    2.03906900000000    2.78279400000000
C         0.90945700000000    3.80467600000000   -0.64449500000000
C         1.04199200000000    3.50522300000000    0.88771600000000
C        -0.43475200000000    2.33128100000000   -2.01407900000000
C        -0.57411200000000    3.56214600000000   -1.19969900000000
C        -1.44542600000000    1.55961600000000   -2.34815200000000
C         0.11909400000000    0.04622900000000   -3.16161600000000
C         0.49039500000000   -1.16633200000000   -2.83265200000000
C        -1.27261100000000    0.49245000000000   -3.38430200000000
C        -0.39975700000000   -2.34410400000000   -2.94630000000000
C         1.49115600000000   -3.36909100000000   -1.28392300000000
C         1.63569900000000   -3.27250800000000    0.30307300000000
C        -0.01858100000000   -3.29948000000000   -1.78061900000000
C         0.37721500000000   -3.50834900000000    1.15840200000000
C         1.43123500000000   -1.81282900000000    2.91130800000000
C         0.95655800000000   -0.39615800000000    2.91960700000000
C         0.36585600000000   -2.91057900000000    2.61659400000000
C        -0.28376000000000   -0.05948500000000    3.16208800000000
C         0.24222500000000    2.38964300000000    2.89161300000000
C        -0.12403500000000    2.79368600000000    1.50382300000000
C        -0.70973500000000    1.33336700000000    3.48140200000000
C        -1.75918700000000    3.44442500000000   -0.21620000000000
C        -1.35810000000000    2.79344900000000    1.06578500000000
C        -2.87326400000000    1.72589200000000   -1.97639400000000
C        -3.04373500000000    2.58554500000000   -0.66753300000000
C        -2.43218100000000   -0.53187600000000   -3.14411600000000
C        -1.98003200000000   -2.02948300000000   -2.80686800000000
C        -3.45472900000000    0.22876100000000   -2.12464400000000
C        -0.99914800000000   -2.81027200000000   -0.75065400000000
C        -0.83001600000000   -2.91771100000000    0.54087600000000
C        -2.34412700000000   -2.61227900000000   -1.38647900000000
C        -1.21056100000000   -2.47718600000000    2.87329400000000
C        -1.40597800000000   -1.00501400000000    3.40311500000000
C        -1.93092400000000   -2.85336200000000    1.53089300000000
C        -2.24140800000000    1.36025100000000    3.02693000000000
C        -2.56318200000000    2.30184900000000    1.80588800000000
C        -3.40810500000000    1.73861000000000    0.61502000000000
C        -2.60927200000000   -0.17222000000000    2.82254100000000
C        -3.76011300000000   -0.42176700000000   -0.75159500000000
C        -3.43195300000000   -1.93251800000000   -0.50553100000000
C        -3.09304200000000   -1.95907400000000    1.06463600000000
C        -3.14070800000000    0.29570600000000    0.41279400000000
C        -2.83142200000000   -0.52434600000000    1.40119700000000
O         4.60026600000000    1.18267900000000   -2.37726600000000
H         5.32881400000000    0.65452700000000   -1.98239400000000
O         2.62545700000000    3.92607800000000   -2.38731300000000
H         3.54412400000000    3.84248300000000   -2.03611600000000
O         3.36637400000000    3.44247300000000    1.55923500000000
H         3.39900100000000    3.65751900000000    2.51292600000000
O         5.23129400000000   -0.43035100000000   -0.69372300000000
H         5.61464700000000    0.20331600000000   -0.04031800000000
O         1.15420200000000    4.72965900000000    1.58987900000000
H         1.21055800000000    5.43672500000000    0.92241100000000
O         1.20101300000000    5.16371000000000   -0.80570600000000
H         1.79113500000000    5.23611400000000   -1.58423800000000
O         4.78668300000000    1.21597800000000    1.05078200000000
H         5.05807600000000    0.96111200000000    1.95933100000000
O         0.69167300000000    3.31741000000000   -3.72807100000000
H         1.52939200000000    3.46016800000000   -4.19198100000000
O         1.34944300000000    1.26163200000000   -4.75373500000000
H         2.08317400000000    0.70838400000000   -5.09159500000000
O         3.38233600000000    0.11753000000000   -4.08130600000000
H         4.15444800000000    0.69001600000000   -3.88271800000000
O         4.40250600000000   -0.30669300000000    2.87994400000000
H         4.68127400000000   -1.24852400000000    2.83694100000000
O         3.66326300000000   -2.59826200000000    2.37249300000000
H         3.36413800000000   -2.96988400000000    3.22389800000000
O         1.98584200000000   -2.08693800000000    4.19799800000000
H         1.32082600000000   -2.58314700000000    4.70100800000000
O         0.66029400000000   -3.94437400000000    3.50925800000000
H         0.22309000000000   -4.74122300000000    3.15991500000000
O        -0.16192600000000   -2.93471300000000   -4.19939000000000
H        -1.01476200000000   -3.35101800000000   -4.45007000000000
O        -0.41442000000000   -4.59898600000000   -2.16847000000000
H         0.35115500000000   -5.18751500000000   -2.04930000000000
O        -2.57615700000000   -2.88500300000000   -3.74254900000000
H        -3.20890400000000   -2.35359000000000   -4.26055100000000
O        -3.14594900000000   -0.64422100000000   -4.34853700000000
H        -2.82496900000000    0.05694400000000   -4.94304700000000
O         0.16015300000000   -4.89911200000000    1.25222300000000
H         1.02109900000000   -5.32414500000000    1.09599900000000
O        -1.41896600000000    1.02829400000000   -4.68432400000000
H        -0.59098800000000    1.47545800000000   -4.92502200000000
O         2.25809900000000   -1.89849300000000   -4.15081500000000
H         1.46831200000000   -2.39233900000000   -4.44785300000000
O         1.95100000000000   -4.63730200000000   -1.66045400000000
H         2.84331100000000   -4.51711700000000   -2.04420500000000
O         3.60183300000000   -3.00506400000000   -2.48039000000000
H         3.47481200000000   -2.81903100000000   -3.44148700000000
O         2.51205300000000   -4.30589300000000    0.72183000000000
H         3.42534800000000   -4.01995200000000    0.53694700000000
O        -1.55109100000000   -1.06069300000000    4.79451800000000
H        -2.49505000000000   -1.21362300000000    4.97375000000000
O        -3.76049100000000   -0.44551900000000    3.57321400000000
H        -4.23964200000000   -1.17214100000000    3.13440900000000
O        -4.77449200000000    1.87791200000000    0.89611700000000
H        -4.85078000000000    2.67843100000000    1.44943800000000
O        -4.25122700000000   -2.36757600000000    1.75399500000000
H        -4.83748400000000   -2.75612500000000    1.06709500000000
O        -3.27901900000000    3.42670000000000    2.26321300000000
H        -3.35759200000000    3.33152600000000    3.23012300000000
O        -2.99260000000000    1.85126100000000    4.09597600000000
H        -2.55767800000000    1.52129500000000    4.90499400000000
O        -4.60520400000000   -2.67603200000000   -0.67858700000000
H        -5.29491900000000   -2.06561700000000   -0.99169900000000
O        -1.70367800000000   -3.28445000000000    3.89193700000000
H        -2.12303000000000   -4.05533200000000    3.47540000000000
O        -5.15853500000000   -0.34765200000000   -0.53464300000000
H        -5.39800800000000    0.56419700000000   -0.30450000000000
O        -4.09026000000000    3.48044900000000   -0.91209500000000
H        -3.86705700000000    4.28695100000000   -0.40034900000000
O        -4.68442800000000    0.30278800000000   -2.76374600000000
H        -4.61834300000000    1.01201100000000   -3.42739400000000
O         2.46986900000000    2.80949400000000    3.73820800000000
H         2.65277400000000    2.22694700000000    4.49583900000000
O         4.07188900000000    2.81790700000000   -0.83124800000000
H         4.10467800000000    3.18970400000000    0.07330200000000
O        -2.20898300000000    4.74499000000000    0.08400800000000
H        -1.87848000000000    5.32304300000000   -0.62545100000000
O         0.09416400000000    3.51070100000000    3.73436700000000
H         0.52220900000000    4.26670700000000    3.29728300000000
O        -0.91375100000000    4.64657600000000   -2.03873200000000
H        -0.43985700000000    4.53255600000000   -2.88064800000000
O        -3.44007100000000    2.45146600000000   -3.04877600000000
H        -3.98795500000000    3.15014600000000   -2.64069500000000
O         2.58317600000000    0.49165200000000    4.35583000000000
H         2.54485900000000   -0.43137200000000    4.66393900000000
O        -0.67335700000000    1.45707500000000    4.88382900000000
H        -0.40837900000000    2.37479100000000    5.07179300000000
O        -2.42575500000000   -4.17264000000000    1.69056500000000
H        -2.76881900000000   -4.46497400000000    0.83311300000000
O        -2.86037500000000   -3.91876200000000   -1.52535900000000
H        -2.22882100000000   -4.44617700000000   -2.04212100000000
O         4.31029900000000   -2.57392000000000   -0.20621000000000
H         4.92013300000000   -2.60471000000000   -0.96012100000000
