120
 energy: -265.950919846066 gnorm: 0.000255115491 xtb: 6.4.1 (a3dbbd7)
C        -1.20810500000000   -0.97788400000000    2.84612200000000
C        -0.93528500000000    0.56602600000000    2.99994600000000
C         0.61669500000000    0.66705900000000    3.10925500000000
C         0.08487900000000   -1.46252600000000    2.24668400000000
C         1.06739400000000   -0.59215700000000    2.41426700000000
C         0.27329700000000   -2.91115000000000    1.99846400000000
C        -0.89544500000000   -3.47093000000000    1.09483500000000
C        -2.49243400000000   -1.42036200000000    2.08424100000000
C        -2.24012900000000   -2.62075600000000    1.05826200000000
C        -3.22913300000000   -0.31981600000000    1.18640500000000
C        -1.43394300000000    1.32766800000000    1.82598700000000
C        -2.86351000000000    1.15612600000000    1.43728400000000
C        -0.85881800000000    2.38309000000000    1.27460500000000
C         1.30999800000000    1.94280200000000    2.51872500000000
C         0.42005500000000    2.98958200000000    1.73557000000000
C         2.29670600000000    1.50843500000000    1.46323900000000
C         2.51920200000000   -0.89094800000000    2.27155100000000
C         3.20479000000000    0.31654500000000    1.55363900000000
C         1.61168400000000   -3.21329000000000    1.23508900000000
C         2.76848300000000   -2.12985300000000    1.33196800000000
C        -0.24898100000000   -3.45698800000000   -0.27185000000000
C         1.14881500000000   -3.31958300000000   -0.19431200000000
C        -0.90014400000000   -3.25966400000000   -1.45795700000000
C        -2.46645900000000   -1.97513900000000   -0.28819700000000
C        -2.95832200000000   -0.75334000000000   -0.21491000000000
C        -2.33775200000000   -2.78840900000000   -1.53459400000000
C        -3.60654000000000   -0.01378700000000   -1.32370200000000
C        -3.09036900000000    2.15983800000000    0.21973700000000
C        -1.79155400000000    3.13843200000000    0.36389400000000
C        -3.33517400000000    1.54651900000000   -1.21152500000000
C        -1.05011800000000    3.63676000000000   -0.90992300000000
C         1.32698600000000    3.45051300000000    0.52902400000000
C         2.28845800000000    2.28658300000000    0.39201800000000
C         0.56695800000000    3.82041400000000   -0.80230000000000
C         3.20478200000000    2.17222900000000   -0.79402700000000
C         3.35953800000000   -0.16503300000000    0.13859900000000
C         3.07394400000000   -1.44579800000000    0.01117100000000
C         3.89334000000000    0.74551200000000   -0.91245500000000
C         1.88398800000000   -2.97786300000000   -1.29806300000000
C         3.21312700000000   -2.24718800000000   -1.23279500000000
C        -0.17677900000000   -2.80834900000000   -2.57452800000000
C         1.21869200000000   -2.66681900000000   -2.49548700000000
C        -2.41648900000000   -1.92675900000000   -2.86112800000000
C        -3.04795900000000   -0.45042300000000   -2.72949800000000
C        -0.96127600000000   -1.90745800000000   -3.32019300000000
C        -2.17275700000000    1.71456100000000   -2.13618900000000
C        -1.19612300000000    2.65324700000000   -2.02618700000000
C        -2.03882500000000    0.62551600000000   -3.01419900000000
C         1.08192600000000    2.92187200000000   -1.92041600000000
C         2.25508800000000    2.21180900000000   -1.95983700000000
C         0.01548600000000    2.46204600000000   -2.71435600000000
C         3.58051800000000    0.21538600000000   -2.37543900000000
C         3.26271000000000   -1.36566600000000   -2.55196000000000
C         1.89118100000000   -1.62234100000000   -3.16238900000000
C         2.41864700000000    1.08990000000000   -2.79204000000000
C        -0.31194400000000   -0.85413100000000   -3.90762300000000
C        -0.89354200000000    0.46310600000000   -3.74960400000000
C         0.17152900000000    1.38542000000000   -3.58088000000000
C         1.11786300000000   -0.70914900000000   -3.82833000000000
C         1.41144100000000    0.69842900000000   -3.63745200000000
O        -1.22965200000000   -1.53767900000000    4.14960500000000
H        -2.16484400000000   -1.64921300000000    4.39517900000000
O         0.31989200000000   -3.58813500000000    3.22858600000000
H        -0.21857400000000   -3.09410300000000    3.87158500000000
O         3.03227600000000   -1.07722000000000    3.56363900000000
H         3.98494200000000   -0.89271900000000    3.50654700000000
O        -1.56871800000000    1.06786700000000    4.14710100000000
H        -1.01517500000000    0.81256000000000    4.90372500000000
O         3.95861200000000   -2.77548200000000    1.71432400000000
H         3.69552200000000   -3.66387800000000    2.03230100000000
O         2.12771400000000   -4.43548500000000    1.69812500000000
H         1.56292700000000   -4.72299600000000    2.43512700000000
O         0.95377000000000    0.55297600000000    4.48111100000000
H         1.71303600000000   -0.05770500000000    4.54389300000000
O        -1.16244200000000   -4.78179100000000    1.49913800000000
H        -2.09252800000000   -4.82804100000000    1.77900500000000
O         1.97351600000000    2.64587900000000    3.53263100000000
H         1.79600300000000    2.18145700000000    4.37097200000000
O         0.09664400000000    4.06769400000000    2.55350700000000
H         0.91504000000000    4.29661400000000    3.02745100000000
O        -4.62411400000000   -0.44683600000000    1.38351500000000
H        -4.86012100000000    0.25053900000000    2.02990400000000
O        -3.68184400000000    1.60280100000000    2.50257500000000
H        -3.15685800000000    1.59052500000000    3.32076700000000
O        -3.31686800000000   -3.79609800000000   -1.50701800000000
H        -3.55407900000000   -3.97338100000000   -2.43378600000000
O        -3.20050600000000   -2.66323900000000   -3.76410400000000
H        -3.69316800000000   -2.01812400000000   -4.30439200000000
O        -4.10525900000000   -0.34935100000000   -3.66109100000000
H        -4.92553700000000   -0.53686600000000   -3.16941600000000
O        -4.98918100000000   -0.27883900000000   -1.31267300000000
H        -5.27171600000000   -0.33271400000000   -0.38091000000000
O         2.11353100000000    4.54266100000000    0.93688000000000
H         1.73409200000000    5.34016200000000    0.52693600000000
O         0.84982400000000    5.16702100000000   -1.07131100000000
H         0.02941600000000    5.54986600000000   -1.44346300000000
O        -3.39451200000000   -1.82417300000000    3.07609000000000
H        -4.06995200000000   -2.37350500000000    2.64804300000000
O        -3.31810800000000   -3.52341400000000    1.25686100000000
H        -3.55086300000000   -3.89526600000000    0.38705600000000
O         4.35601400000000   -3.06541500000000   -1.17587600000000
H         4.58652000000000   -3.19041800000000   -0.24082300000000
O         5.26761300000000    0.83709000000000   -0.67974200000000
H         5.64941300000000    1.31025000000000   -1.43597000000000
O         4.19245600000000    3.16514200000000   -0.77544400000000
H         3.83492600000000    3.93355100000000   -0.30610500000000
O         4.43670200000000    0.58381300000000    2.17170300000000
H         5.03483500000000    0.94120300000000    1.49856300000000
O         4.69638300000000    0.53194400000000   -3.16134900000000
H         4.93695500000000   -0.28054300000000   -3.64869400000000
O         4.25516200000000   -1.88788500000000   -3.39781900000000
H         4.77686400000000   -2.51593000000000   -2.86589000000000
O        -1.60424800000000    4.86515000000000   -1.30095200000000
H        -1.99546600000000    5.24530400000000   -0.48681900000000
O        -2.22072400000000    4.30048100000000    1.02612200000000
H        -3.07201400000000    4.09761000000000    1.45372600000000
O        -4.21266200000000    2.91211600000000    0.57107800000000
H        -4.70502100000000    3.12009900000000   -0.23952000000000
O        -4.45982900000000    2.22552700000000   -1.74609400000000
H        -4.63785400000000    1.86752400000000   -2.62537000000000
