128
 energy: -284.293797089442 gnorm: 0.000167357543 xtb: 6.4.1 (a3dbbd7)
C         0.68309100000000   -2.04311400000000    2.77486900000000
C         2.05911300000000   -2.27633900000000    2.00233400000000
C         1.58096100000000   -3.09359300000000    0.70803500000000
C        -0.38274300000000   -2.25406400000000    1.73317600000000
C         0.10823000000000   -2.82978400000000    0.64869400000000
C        -1.82611100000000   -2.27883000000000    2.12141200000000
C        -2.23337900000000   -0.96828200000000    2.86228100000000
C         0.49093300000000   -0.76404200000000    3.61426900000000
C        -1.01630500000000   -0.17286500000000    3.51143800000000
C         1.42278700000000    0.48482400000000    3.24930800000000
C         2.94098900000000   -1.04011500000000    1.65810700000000
C         2.76788700000000    0.29537800000000    2.47880100000000
C         2.85477200000000   -0.61908700000000    0.21279400000000
C         2.19230200000000   -2.85914600000000   -0.71730200000000
C         3.12351500000000   -1.61581500000000   -0.86156900000000
C         1.10262800000000   -2.55967000000000   -1.74004200000000
C        -0.74175300000000   -3.50389400000000   -0.37379100000000
C        -0.16855500000000   -3.34987500000000   -1.82896600000000
C        -2.76155800000000   -2.36347100000000    0.86629200000000
C        -2.01394200000000   -2.71566400000000   -0.38491400000000
C        -2.94630100000000   -0.18695400000000    1.75007400000000
C        -3.22306000000000   -0.93709000000000    0.69971700000000
C        -3.18318300000000    1.29334600000000    1.83109600000000
C        -0.81759500000000    1.04064600000000    2.66378100000000
C         0.50509700000000    1.36209400000000    2.48688000000000
C        -1.77154800000000    1.74602800000000    1.97939500000000
C         0.85646900000000    2.38942400000000    1.66425300000000
C         3.09019700000000    1.43019700000000    1.34636200000000
C         2.97192900000000    0.68993500000000    0.05492500000000
C         2.24973800000000    2.74312700000000    1.31410300000000
C         3.33111100000000    1.39565500000000   -1.20185600000000
C         2.85048400000000   -1.03862400000000   -2.28846200000000
C         1.46299700000000   -1.59824700000000   -2.57488500000000
C         2.97142700000000    0.53642600000000   -2.46746700000000
C         0.65080400000000   -1.10986100000000   -3.72983000000000
C        -1.32606000000000   -2.64564800000000   -2.65017000000000
C        -2.27999000000000   -2.16419800000000   -1.55838600000000
C        -0.89911100000000   -1.50644000000000   -3.65822400000000
C        -4.00121800000000   -0.51496900000000   -0.50180500000000
C        -3.39255500000000   -1.17591900000000   -1.81291200000000
C        -3.68276600000000    2.00418200000000    0.49707300000000
C        -3.96298200000000    1.05014000000000   -0.74527400000000
C        -1.42075800000000    2.74049700000000    1.09399600000000
C        -0.09929000000000    3.07875900000000    0.95123700000000
C        -2.57188500000000    3.19758800000000    0.26560700000000
C         2.06841900000000    3.52997300000000   -0.08322800000000
C         2.52760700000000    2.76703900000000   -1.38423800000000
C         0.49009400000000    4.00875800000000   -0.04617100000000
C         1.62808900000000    1.08552400000000   -2.84657800000000
C         0.64829500000000    0.38760400000000   -3.48500500000000
C         1.36507500000000    2.31573900000000   -2.21219600000000
C        -1.56427300000000   -0.21102100000000   -3.24519300000000
C        -2.66113200000000   -0.03203000000000   -2.45507700000000
C        -2.91059900000000    1.19170400000000   -1.80154400000000
C        -0.66415500000000    0.85609100000000   -3.34940100000000
C        -2.01856700000000    3.51113600000000   -1.16455500000000
C        -0.41185600000000    3.93921700000000   -1.32572300000000
C         0.11741300000000    2.85577000000000   -2.21612200000000
C        -2.10113900000000    2.26751800000000   -1.99404200000000
C        -0.92480400000000    2.06988000000000   -2.72964500000000
O         0.52084900000000   -3.16300600000000    3.64458200000000
H         0.76546100000000   -2.84541300000000    4.53517000000000
O        -3.17622900000000   -1.25559400000000    3.85579300000000
H        -3.13335600000000   -2.21151800000000    4.03211300000000
O         2.87622000000000   -3.09140200000000    2.77854100000000
H         2.35418700000000   -3.86963300000000    3.03039200000000
O        -1.35049100000000    0.16645200000000    4.82747300000000
H        -2.29693300000000    0.36846800000000    4.85146700000000
O         0.75469000000000   -1.12644500000000    4.93393700000000
H         0.77666900000000   -0.29317900000000    5.43817600000000
O         1.68941200000000   -4.47281100000000    1.01642800000000
H         2.33569900000000   -4.83926400000000    0.37709300000000
O        -2.06803500000000   -3.40042800000000    2.94171600000000
H        -1.23027900000000   -3.60662200000000    3.40320000000000
O        -0.89260100000000   -4.86668300000000   -0.04756400000000
H        -0.14462600000000   -5.11059800000000    0.52819900000000
O         2.89636400000000   -4.01732000000000   -1.08925900000000
H         3.83606500000000   -3.76633200000000   -1.15954800000000
O         4.46848400000000   -2.03802800000000   -0.76890100000000
H         4.84714200000000   -1.90738800000000   -1.66289700000000
O         3.79010300000000   -1.66186300000000   -3.12599500000000
H         3.89002700000000   -1.10032300000000   -3.91241900000000
O         0.07094700000000   -4.61249400000000   -2.38622600000000
H        -0.20527200000000   -5.26622300000000   -1.70980400000000
O         1.22864900000000   -1.52636500000000   -4.92511000000000
H         0.50096600000000   -1.62602100000000   -5.56403100000000
O         3.91495700000000    0.77155800000000   -3.48098500000000
H         4.50718100000000    1.47397800000000   -3.17389500000000
O        -1.28450400000000   -1.85749800000000   -4.96081200000000
H        -1.73987300000000   -2.72001100000000   -4.89659800000000
O        -1.99748800000000   -3.64003400000000   -3.39416100000000
H        -1.39112200000000   -4.41247100000000   -3.40249300000000
O        -3.95598800000000    1.66374300000000    2.93381300000000
H        -4.88869300000000    1.53860600000000    2.71451500000000
O        -5.34802100000000   -0.87566800000000   -0.33192900000000
H        -5.38855700000000   -1.83598900000000   -0.23016000000000
O        -3.86051300000000   -3.20903200000000    1.08158600000000
H        -3.56056300000000   -3.93348100000000    1.65074900000000
O        -4.44618200000000   -1.73463500000000   -2.55049000000000
H        -4.07211800000000   -2.30056900000000   -3.23695600000000
O        -4.88997900000000    2.62651700000000    0.82257000000000
H        -5.45777200000000    2.54135600000000    0.02493500000000
O        -5.20853500000000    1.43810100000000   -1.28970300000000
H        -5.78557300000000    0.65430000000000   -1.25900000000000
O         3.76887200000000    0.37742600000000    3.44889400000000
H         4.48216600000000   -0.22539500000000    3.17418000000000
O         1.68227200000000    1.13417800000000    4.47266200000000
H         2.63885400000000    1.06987000000000    4.63526800000000
O         4.44368500000000    1.79337500000000    1.49390700000000
H         4.46763200000000    2.41354800000000    2.24456100000000
O         2.82198700000000    3.60743000000000    2.26320900000000
H         3.13999900000000    4.39081900000000    1.77616400000000
O         2.84256100000000    4.69347400000000    0.00366600000000
H         2.19464900000000    5.41430400000000    0.19602500000000
O         3.32248300000000    3.60308700000000   -2.18237600000000
H         3.69853100000000    4.29440300000000   -1.61506400000000
O        -0.37873500000000    5.20699200000000   -1.92005000000000
H        -1.27724700000000    5.36096700000000   -2.27961900000000
O        -2.77155900000000    4.54412900000000   -1.73008000000000
H        -3.17417400000000    5.01829900000000   -0.97268600000000
O        -3.13091900000000    4.39550000000000    0.74272300000000
H        -3.96731400000000    4.15950500000000    1.18751900000000
O         0.50114500000000    5.33807700000000    0.40586700000000
H         0.13775500000000    5.86968700000000   -0.33370200000000
O         4.71355200000000    1.63924600000000   -1.21905600000000
H         5.00054400000000    1.81440300000000   -0.30624000000000
O         4.29476300000000   -1.39589800000000    1.87652300000000
H         4.60253600000000   -1.95803500000000    1.15143800000000
