 vasp.5.4.4.18Apr17-6-g9f103f2a35 (build Jul 09 2019 11:14:26) complex          
  
 executed on             LinuxIFC date 2022.08.30  00:30:28
 running on   16 total cores
 distrk:  each k-point on   16 cores,    1 groups
 distr:  one band on NCORES_PER_BAND=   1 cores,   16 groups


--------------------------------------------------------------------------------------------------------


 INCAR:
 POTCAR:   PAW_PBE Cu 05Jan2001                   

 ----------------------------------------------------------------------------- 
|                                                                             |
|           W    W    AA    RRRRR   N    N  II  N    N   GGGG   !!!           |
|           W    W   A  A   R    R  NN   N  II  NN   N  G    G  !!!           |
|           W    W  A    A  R    R  N N  N  II  N N  N  G       !!!           |
|           W WW W  AAAAAA  RRRRR   N  N N  II  N  N N  G  GGG   !            |
|           WW  WW  A    A  R   R   N   NN  II  N   NN  G    G                |
|           W    W  A    A  R    R  N    N  II  N    N   GGGG   !!!           |
|                                                                             |
|      For optimal performance we recommend to set                            |
|        NCORE= 4 - approx SQRT( number of cores)                             |
|      NCORE specifies how many cores store one orbital (NPAR=cpu/NCORE).     |
|      This setting can  greatly improve the performance of VASP for DFT.     |
|      The default,   NCORE=1            might be grossly inefficient         |
|      on modern multi-core architectures or massively parallel machines.     |
|      Do your own testing !!!!                                               |
|      Unfortunately you need to use the default for GW and RPA calculations. |
|      (for HF NCORE is supported but not extensively tested yet)             |
|                                                                             |
 ----------------------------------------------------------------------------- 

 POTCAR:   PAW_PBE Cu 05Jan2001                   
   VRHFIN =Cu: d10 p1                                                           
   LEXCH  = PE                                                                  
   EATOM  =  1390.9800 eV,  102.2341 Ry                                         
                                                                                
   TITEL  = PAW_PBE Cu 05Jan2001                                                
   LULTRA =        F    use ultrasoft PP ?                                      
   IUNSCR =        1    unscreen: 0-lin 1-nonlin 2-no                           
   RPACOR =    2.000    partial core radius                                     
   POMASS =   63.546; ZVAL   =   11.000    mass and valenz                      
   RCORE  =    2.300    outmost cutoff radius                                   
   RWIGS  =    2.480; RWIGS  =    1.312    wigner-seitz radius (au A)           
   ENMAX  =  273.214; ENMIN  =  204.910 eV                                      
   RCLOC  =    1.712    cutoff for local pot                                    
   LCOR   =        T    correct aug charges                                     
   LPAW   =        T    paw PP                                                  
   EAUG   =  516.456                                                            
   DEXC   =    -.008                                                            
   RMAX   =    2.789    core radius for proj-oper                               
   RAUG   =    1.300    factor for augmentation sphere                          
   RDEP   =    2.302    radius for radial grids                                 
   QCUT   =   -4.481; QGAM   =    8.962    optimization parameters              
                                                                                
   Description                                                                  
     l     E      TYP  RCUT    TYP  RCUT                                        
     2   .000     23  2.300                                                     
     2   .000     23  2.300                                                     
     0   .000     23  2.300                                                     
     0   .000     23  2.300                                                     
     1  -.200     23  2.300                                                     
     1   .000     23  2.300                                                     
     3   .000      7   .000                                                     
  local pseudopotential read in
  partial core-charges read in
  atomic valenz-charges read in
  non local Contribution for L=           2  read in
    real space projection operators read in
  non local Contribution for L=           2  read in
    real space projection operators read in
  non local Contribution for L=           0  read in
    real space projection operators read in
  non local Contribution for L=           0  read in
    real space projection operators read in
  non local Contribution for L=           1  read in
    real space projection operators read in
  non local Contribution for L=           1  read in
    real space projection operators read in
    PAW grid and wavefunctions read in
 
   number of l-projection  operators is LMAX  =           6
   number of lm-projection operators is LMMAX =          18
 

 ----------------------------------------------------------------------------- 
|                                                                             |
|  ADVICE TO THIS USER RUNNING 'VASP/VAMP'   (HEAR YOUR MASTER'S VOICE ...):  |
|                                                                             |
|      You have a (more or less) 'small supercell' and for smaller cells      |
|      it is recommended  to use the reciprocal-space projection scheme!      |
|      The real space optimization is not  efficient for small cells and it   |
|      is also less accurate ...                                              |
|      Therefore set LREAL=.FALSE. in the  INCAR file                         |
|                                                                             |
 ----------------------------------------------------------------------------- 

 Optimization of the real space projectors (new method)

 maximal supplied QI-value         = 16.25
 optimisation between [QCUT,QGAM] = [ 11.38, 22.75] = [ 36.24,144.96] Ry 
 Optimized for a Real-space Cutoff    1.39 Angstroem

   l    n(q)    QCUT    max X(q) W(low)/X(q) W(high)/X(q)  e(spline) 
   2      8    11.376     4.977    0.31E-04    0.13E-04    0.34E-07
   2      8    11.376    13.467    0.33E-03    0.41E-04    0.15E-06
   0      9    11.376    13.303    0.12E-04    0.78E-05    0.13E-07
   0      9    11.376    44.613    0.65E-04    0.10E-03    0.17E-06
   1      9    11.376     5.276    0.85E-04    0.12E-04    0.29E-07
   1      9    11.376     7.322    0.38E-03    0.10E-03    0.13E-06
 PAW_PBE Cu 05Jan2001                   :
 energy of atom  1       EATOM=-1390.9800
 kinetic energy error for atom=    0.0032 (will be added to EATOM!!)
 
 
 POSCAR: Cu                                      
  positions in cartesian coordinates
  No initial velocities read in
 exchange correlation table for  LEXCH =        8
   RHO(1)=    0.500       N(1)  =     2000
   RHO(2)=  100.500       N(2)  =     4000
 


--------------------------------------------------------------------------------------------------------


 ion  position               nearest neighbor table
   1  0.000  0.000  0.000-   2 2.55   2 2.55   2 2.55   2 2.55   2 2.55   2 2.55   2 2.55   2 2.55

   2  0.500  0.500  0.500-   1 2.55   1 2.55   1 2.55   1 2.55   1 2.55   1 2.55   1 2.55   1 2.55

 

IMPORTANT INFORMATION: All symmetrisations will be switched off!
NOSYMM: (Re-)initialisation of all symmetry stuff for point group C_1.

 
 
 KPOINTS: Regular 4 x 4 x 4 mesh centered at Gamma

Automatic generation of k-mesh.
Space group operators:
 irot       det(A)        alpha          n_x          n_y          n_z        tau_x        tau_y        tau_z
    1     1.000000     0.000000     1.000000     0.000000     0.000000     0.000000     0.000000     0.000000
 
 Subroutine IBZKPT returns following result:
 ===========================================
 
 Found     36 irreducible k-points:
 
 Following reciprocal coordinates:
            Coordinates               Weight
  0.000000  0.000000  0.000000      1.000000
  0.250000  0.000000  0.000000      2.000000
  0.500000  0.000000  0.000000      1.000000
  0.000000  0.250000  0.000000      2.000000
  0.250000  0.250000  0.000000      2.000000
  0.500000  0.250000  0.000000      2.000000
 -0.250000  0.250000  0.000000      2.000000
  0.000000  0.500000  0.000000      1.000000
  0.250000  0.500000  0.000000      2.000000
  0.500000  0.500000  0.000000      1.000000
  0.000000  0.000000  0.250000      2.000000
  0.250000  0.000000  0.250000      2.000000
  0.500000  0.000000  0.250000      2.000000
 -0.250000  0.000000  0.250000      2.000000
  0.000000  0.250000  0.250000      2.000000
  0.250000  0.250000  0.250000      2.000000
  0.500000  0.250000  0.250000      2.000000
 -0.250000  0.250000  0.250000      2.000000
  0.000000  0.500000  0.250000      2.000000
  0.250000  0.500000  0.250000      2.000000
  0.500000  0.500000  0.250000      2.000000
 -0.250000  0.500000  0.250000      2.000000
  0.000000 -0.250000  0.250000      2.000000
  0.250000 -0.250000  0.250000      2.000000
  0.500000 -0.250000  0.250000      2.000000
 -0.250000 -0.250000  0.250000      2.000000
  0.000000  0.000000  0.500000      1.000000
  0.250000  0.000000  0.500000      2.000000
  0.500000  0.000000  0.500000      1.000000
  0.000000  0.250000  0.500000      2.000000
  0.250000  0.250000  0.500000      2.000000
  0.500000  0.250000  0.500000      2.000000
 -0.250000  0.250000  0.500000      2.000000
  0.000000  0.500000  0.500000      1.000000
  0.250000  0.500000  0.500000      2.000000
  0.500000  0.500000  0.500000      1.000000
 
 Following cartesian coordinates:
            Coordinates               Weight
  0.000000  0.000000  0.000000      1.000000
  0.098209  0.000000  0.000000      2.000000
  0.196419  0.000000  0.000000      1.000000
  0.000000  0.098209  0.000000      2.000000
  0.098209  0.098209  0.000000      2.000000
  0.196419  0.098209  0.000000      2.000000
 -0.098209  0.098209  0.000000      2.000000
  0.000000  0.196419  0.000000      1.000000
  0.098209  0.196419  0.000000      2.000000
  0.196419  0.196419  0.000000      1.000000
  0.000000  0.000000  0.069444      2.000000
  0.098209  0.000000  0.069444      2.000000
  0.196419  0.000000  0.069444      2.000000
 -0.098209  0.000000  0.069444      2.000000
  0.000000  0.098209  0.069444      2.000000
  0.098209  0.098209  0.069444      2.000000
  0.196419  0.098209  0.069444      2.000000
 -0.098209  0.098209  0.069444      2.000000
  0.000000  0.196419  0.069444      2.000000
  0.098209  0.196419  0.069444      2.000000
  0.196419  0.196419  0.069444      2.000000
 -0.098209  0.196419  0.069444      2.000000
  0.000000 -0.098209  0.069444      2.000000
  0.098209 -0.098209  0.069444      2.000000
  0.196419 -0.098209  0.069444      2.000000
 -0.098209 -0.098209  0.069444      2.000000
  0.000000  0.000000  0.138889      1.000000
  0.098209  0.000000  0.138889      2.000000
  0.196419  0.000000  0.138889      1.000000
  0.000000  0.098209  0.138889      2.000000
  0.098209  0.098209  0.138889      2.000000
  0.196419  0.098209  0.138889      2.000000
 -0.098209  0.098209  0.138889      2.000000
  0.000000  0.196419  0.138889      1.000000
  0.098209  0.196419  0.138889      2.000000
  0.196419  0.196419  0.138889      1.000000
 


--------------------------------------------------------------------------------------------------------




 Dimension of arrays:
   k-points           NKPTS =     36   k-points in BZ     NKDIM =     36   number of bands    NBANDS=     16
   number of dos      NEDOS =    301   number of ions     NIONS =      2
   non local maximal  LDIM  =      6   non local SUM 2l+1 LMDIM =     18
   total plane-waves  NPLWV =   3920
   max r-space proj   IRMAX =   1939   max aug-charges    IRDMAX=   6096
   dimension x,y,z NGX =    14 NGY =   14 NGZ =   20
   dimension x,y,z NGXF=    28 NGYF=   28 NGZF=   40
   support grid    NGXF=    28 NGYF=   28 NGZF=   40
   ions per type =               2
   NGX,Y,Z   is equivalent  to a cutoff of   9.14,  9.14,  9.24 a.u.
   NGXF,Y,Z  is equivalent  to a cutoff of  18.29, 18.29, 18.47 a.u.

 SYSTEM =  Cu_optimization                         
 POSCAR =  Cu                                      

 Startparameter for this run:
   NWRITE =      2    write-flag & timer
   PREC   = normal    normal or accurate (medium, high low for compatibility)
   ISTART =      0    job   : 0-new  1-cont  2-samecut
   ICHARG =      2    charge: 1-file 2-atom 10-const
   ISPIN  =      1    spin polarized calculation?
   LNONCOLLINEAR =      F non collinear calculations
   LSORBIT =      F    spin-orbit coupling
   INIWAV =      1    electr: 0-lowe 1-rand  2-diag
   LASPH  =      F    aspherical Exc in radial PAW
   METAGGA=      F    non-selfconsistent MetaGGA calc.

 Electronic Relaxation 1
   ENCUT  =  500.0 eV  36.75 Ry    6.06 a.u.   4.64  4.64  6.56*2*pi/ulx,y,z
   ENINI  =  500.0     initial cutoff
   ENAUG  =  516.5 eV  augmentation charge cutoff
   NELM   =     60;   NELMIN=  4; NELMDL= -5     # of ELM steps 
   EDIFF  = 0.1E-03   stopping-criterion for ELM
   LREAL  =      T    real-space projection
   NLSPLINE    = F    spline interpolate recip. space projectors
   LCOMPAT=      F    compatible to vasp.4.4
   GGA_COMPAT  = T    GGA compatible to vasp.4.4-vasp.4.6
   LMAXPAW     = -100 max onsite density
   LMAXMIX     =    2 max onsite mixed and CHGCAR
   VOSKOWN=      0    Vosko Wilk Nusair interpolation
   ROPT   =   -0.00050
 Ionic relaxation
   EDIFFG = -.1E-01   stopping-criterion for IOM
   NSW    =    700    number of steps for IOM
   NBLOCK =      1;   KBLOCK =    700    inner block; outer block 
   IBRION =      2    ionic relax: 0-MD 1-quasi-New 2-CG
   NFREE  =      1    steps in history (QN), initial steepest desc. (CG)
   ISIF   =      2    stress and relaxation
   IWAVPR =     11    prediction:  0-non 1-charg 2-wave 3-comb
   ISYM   =      0    0-nonsym 1-usesym 2-fastsym
   LCORR  =      T    Harris-Foulkes like correction to forces

   POTIM  = 0.1000    time-step for ionic-motion
   TEIN   =    0.0    initial temperature
   TEBEG  =    0.0;   TEEND  =   0.0 temperature during run
   SMASS  =  -3.00    Nose mass-parameter (am)
   estimated Nose-frequenzy (Omega)   =  0.10E-29 period in steps =****** mass=  -0.148E-27a.u.
   SCALEE = 1.0000    scale energy and forces
   NPACO  =    256;   APACO  = 16.0  distance and # of slots for P.C.
   PSTRESS=    0.0 pullay stress

  Mass of Ions in am
   POMASS =  63.55
  Ionic Valenz
   ZVAL   =  11.00
  Atomic Wigner-Seitz radii
   RWIGS  =  -1.00
  virtual crystal weights 
   VCA    =   1.00
   NELECT =      22.0000    total number of electrons
   NUPDOWN=      -1.0000    fix difference up-down

 DOS related values:
   EMIN   =  10.00;   EMAX   =-10.00  energy-range for DOS
   EFERMI =   0.00
   ISMEAR =     1;   SIGMA  =   0.20  broadening in eV -4-tet -1-fermi 0-gaus

 Electronic relaxation 2 (details)
   IALGO  =     38    algorithm
   LDIAG  =      T    sub-space diagonalisation (order eigenvalues)
   LSUBROT=      F    optimize rotation matrix (better conditioning)
   TURBO    =      0    0=normal 1=particle mesh
   IRESTART =      0    0=no restart 2=restart with 2 vectors
   NREBOOT  =      0    no. of reboots
   NMIN     =      0    reboot dimension
   EREF     =   0.00    reference energy to select bands
   IMIX   =      4    mixing-type and parameters
     AMIX     =   0.40;   BMIX     =  1.00
     AMIX_MAG =   1.60;   BMIX_MAG =  1.00
     AMIN     =   0.10
     WC   =   100.;   INIMIX=   1;  MIXPRE=   1;  MAXMIX= -45

 Intra band minimization:
   WEIMIN = 0.0010     energy-eigenvalue tresh-hold
   EBREAK =  0.16E-05  absolut break condition
   DEPER  =   0.30     relativ break condition  

   TIME   =   0.40     timestep for ELM

  volume/ion in A,a.u.               =      11.66        78.71
  Fermi-wavevector in a.u.,A,eV,Ry     =   1.605425  3.033812 35.067491  2.577388
  Thomas-Fermi vector in A             =   2.701773
 
 Write flags
   LWAVE        =      T    write WAVECAR
   LDOWNSAMPLE  =      F    k-point downsampling of WAVECAR
   LCHARG       =      T    write CHGCAR
   LVTOT        =      F    write LOCPOT, total local potential
   LVHAR        =      F    write LOCPOT, Hartree potential only
   LELF         =      F    write electronic localiz. function (ELF)
   LORBIT       =      0    0 simple, 1 ext, 2 COOP (PROOUT), +10 PAW based schemes


 Dipole corrections
   LMONO  =      F    monopole corrections only (constant potential shift)
   LDIPOL =      F    correct potential (dipole corrections)
   IDIPOL =      0    1-x, 2-y, 3-z, 4-all directions 
   EPSILON=  1.0000000 bulk dielectric constant

 Exchange correlation treatment:
   GGA     =    --    GGA type
   LEXCH   =     8    internal setting for exchange type
   VOSKOWN=      0    Vosko Wilk Nusair interpolation
   LHFCALC =     F    Hartree Fock is set to
   LHFONE  =     F    Hartree Fock one center treatment
   AEXX    =    0.0000 exact exchange contribution

 Linear response parameters
   LEPSILON=     F    determine dielectric tensor
   LRPA    =     F    only Hartree local field effects (RPA)
   LNABLA  =     F    use nabla operator in PAW spheres
   LVEL    =     F    velocity operator in full k-point grid
   LINTERFAST=   F  fast interpolation
   KINTER  =     0    interpolate to denser k-point grid
   CSHIFT  =0.1000    complex shift for real part using Kramers Kronig
   OMEGAMAX=  -1.0    maximum frequency
   DEG_THRESHOLD= 0.2000000E-02 threshold for treating states as degnerate
   RTIME   =   -0.100 relaxation time in fs
  (WPLASMAI=    0.000 imaginary part of plasma frequency in eV, 0.658/RTIME)
   DFIELD  = 0.0000000 0.0000000 0.0000000 field for delta impulse in time
 
 Orbital magnetization related:
   ORBITALMAG=     F  switch on orbital magnetization
   LCHIMAG   =     F  perturbation theory with respect to B field
   DQ        =  0.001000  dq finite difference perturbation B field
   LLRAUG    =     F  two centre corrections for induced B field



--------------------------------------------------------------------------------------------------------


 conjugate gradient relaxation of ions
 charge density and potential will be updated during run
 non-spin polarized calculation
 Variant of blocked Davidson
 Davidson routine will perform the subspace rotation
 perform sub-space diagonalisation
    after iterative eigenvector-optimisation
 modified Broyden-mixing scheme, WC =      100.0
 initial mixing is a Kerker type mixing with AMIX =  0.4000 and BMIX =      1.0000
 Hartree-type preconditioning will be used
 using additional bands            5
 real space projection scheme for non local part
 use partial core corrections
 calculate Harris-corrections to forces 
   (improved forces if not selfconsistent)
 use gradient corrections 
 use of overlap-Matrix (Vanderbilt PP)
 Methfessel and Paxton  Order N= 1 SIGMA  =   0.20


--------------------------------------------------------------------------------------------------------


  energy-cutoff  :      500.00
  volume of cell :       23.33
      direct lattice vectors                 reciprocal lattice vectors
     2.545584412  0.000000000  0.000000000     0.392837101  0.000000000  0.000000000
     0.000000000  2.545584412  0.000000000     0.000000000  0.392837101  0.000000000
     0.000000000  0.000000000  3.600000000     0.000000000  0.000000000  0.277777778

  length of vectors
     2.545584412  2.545584412  3.600000000     0.392837101  0.392837101  0.277777778


 
 k-points in units of 2pi/SCALE and weight: Regular 4 x 4 x 4 mesh centered at Gamma
   0.00000000  0.00000000  0.00000000       0.016
   0.09820928  0.00000000  0.00000000       0.031
   0.19641855  0.00000000  0.00000000       0.016
   0.00000000  0.09820928  0.00000000       0.031
   0.09820928  0.09820928  0.00000000       0.031
   0.19641855  0.09820928  0.00000000       0.031
  -0.09820928  0.09820928  0.00000000       0.031
   0.00000000  0.19641855  0.00000000       0.016
   0.09820928  0.19641855  0.00000000       0.031
   0.19641855  0.19641855  0.00000000       0.016
   0.00000000  0.00000000  0.06944444       0.031
   0.09820928  0.00000000  0.06944444       0.031
   0.19641855  0.00000000  0.06944444       0.031
  -0.09820928  0.00000000  0.06944444       0.031
   0.00000000  0.09820928  0.06944444       0.031
   0.09820928  0.09820928  0.06944444       0.031
   0.19641855  0.09820928  0.06944444       0.031
  -0.09820928  0.09820928  0.06944444       0.031
   0.00000000  0.19641855  0.06944444       0.031
   0.09820928  0.19641855  0.06944444       0.031
   0.19641855  0.19641855  0.06944444       0.031
  -0.09820928  0.19641855  0.06944444       0.031
   0.00000000 -0.09820928  0.06944444       0.031
   0.09820928 -0.09820928  0.06944444       0.031
   0.19641855 -0.09820928  0.06944444       0.031
  -0.09820928 -0.09820928  0.06944444       0.031
   0.00000000  0.00000000  0.13888889       0.016
   0.09820928  0.00000000  0.13888889       0.031
   0.19641855  0.00000000  0.13888889       0.016
   0.00000000  0.09820928  0.13888889       0.031
   0.09820928  0.09820928  0.13888889       0.031
   0.19641855  0.09820928  0.13888889       0.031
  -0.09820928  0.09820928  0.13888889       0.031
   0.00000000  0.19641855  0.13888889       0.016
   0.09820928  0.19641855  0.13888889       0.031
   0.19641855  0.19641855  0.13888889       0.016
 
 k-points in reciprocal lattice and weights: Regular 4 x 4 x 4 mesh centered at Gamma
   0.00000000  0.00000000  0.00000000       0.016
   0.25000000  0.00000000  0.00000000       0.031
   0.50000000  0.00000000  0.00000000       0.016
   0.00000000  0.25000000  0.00000000       0.031
   0.25000000  0.25000000  0.00000000       0.031
   0.50000000  0.25000000  0.00000000       0.031
  -0.25000000  0.25000000  0.00000000       0.031
   0.00000000  0.50000000  0.00000000       0.016
   0.25000000  0.50000000  0.00000000       0.031
   0.50000000  0.50000000  0.00000000       0.016
   0.00000000  0.00000000  0.25000000       0.031
   0.25000000  0.00000000  0.25000000       0.031
   0.50000000  0.00000000  0.25000000       0.031
  -0.25000000  0.00000000  0.25000000       0.031
   0.00000000  0.25000000  0.25000000       0.031
   0.25000000  0.25000000  0.25000000       0.031
   0.50000000  0.25000000  0.25000000       0.031
  -0.25000000  0.25000000  0.25000000       0.031
   0.00000000  0.50000000  0.25000000       0.031
   0.25000000  0.50000000  0.25000000       0.031
   0.50000000  0.50000000  0.25000000       0.031
  -0.25000000  0.50000000  0.25000000       0.031
   0.00000000 -0.25000000  0.25000000       0.031
   0.25000000 -0.25000000  0.25000000       0.031
   0.50000000 -0.25000000  0.25000000       0.031
  -0.25000000 -0.25000000  0.25000000       0.031
   0.00000000  0.00000000  0.50000000       0.016
   0.25000000  0.00000000  0.50000000       0.031
   0.50000000  0.00000000  0.50000000       0.016
   0.00000000  0.25000000  0.50000000       0.031
   0.25000000  0.25000000  0.50000000       0.031
   0.50000000  0.25000000  0.50000000       0.031
  -0.25000000  0.25000000  0.50000000       0.031
   0.00000000  0.50000000  0.50000000       0.016
   0.25000000  0.50000000  0.50000000       0.031
   0.50000000  0.50000000  0.50000000       0.016
 
 position of ions in fractional coordinates (direct lattice) 
   0.00000000  0.00000000  0.00000000
   0.50000000  0.50000000  0.50000000
 
 position of ions in cartesian coordinates  (Angst):
   0.00000000  0.00000000  0.00000000
   1.27279221  1.27279221  1.80000000
 


--------------------------------------------------------------------------------------------------------


 k-point  1 :   0.0000 0.0000 0.0000  plane waves:     609
 k-point  2 :   0.2500 0.0000 0.0000  plane waves:     585
 k-point  3 :   0.5000 0.0000 0.0000  plane waves:     590
 k-point  4 :   0.0000 0.2500 0.0000  plane waves:     585
 k-point  5 :   0.2500 0.2500 0.0000  plane waves:     583
 k-point  6 :   0.5000 0.2500 0.0000  plane waves:     592
 k-point  7 :  -0.2500 0.2500 0.0000  plane waves:     583
 k-point  8 :   0.0000 0.5000 0.0000  plane waves:     590
 k-point  9 :   0.2500 0.5000 0.0000  plane waves:     592
 k-point 10 :   0.5000 0.5000 0.0000  plane waves:     604
 k-point 11 :   0.0000 0.0000 0.2500  plane waves:     613
 k-point 12 :   0.2500 0.0000 0.2500  plane waves:     593
 k-point 13 :   0.5000 0.0000 0.2500  plane waves:     600
 k-point 14 :  -0.2500 0.0000 0.2500  plane waves:     593
 k-point 15 :   0.0000 0.2500 0.2500  plane waves:     593
 k-point 16 :   0.2500 0.2500 0.2500  plane waves:     588
 k-point 17 :   0.5000 0.2500 0.2500  plane waves:     588
 k-point 18 :  -0.2500 0.2500 0.2500  plane waves:     588
 k-point 19 :   0.0000 0.5000 0.2500  plane waves:     600
 k-point 20 :   0.2500 0.5000 0.2500  plane waves:     588
 k-point 21 :   0.5000 0.5000 0.2500  plane waves:     600
 k-point 22 :  -0.2500 0.5000 0.2500  plane waves:     588
 k-point 23 :   0.0000-0.2500 0.2500  plane waves:     593
 k-point 24 :   0.2500-0.2500 0.2500  plane waves:     588
 k-point 25 :   0.5000-0.2500 0.2500  plane waves:     588
 k-point 26 :  -0.2500-0.2500 0.2500  plane waves:     588
 k-point 27 :   0.0000 0.0000 0.5000  plane waves:     606
 k-point 28 :   0.2500 0.0000 0.5000  plane waves:     592
 k-point 29 :   0.5000 0.0000 0.5000  plane waves:     604
 k-point 30 :   0.0000 0.2500 0.5000  plane waves:     592
 k-point 31 :   0.2500 0.2500 0.5000  plane waves:     590
 k-point 32 :   0.5000 0.2500 0.5000  plane waves:     600
 k-point 33 :  -0.2500 0.2500 0.5000  plane waves:     590
 k-point 34 :   0.0000 0.5000 0.5000  plane waves:     604
 k-point 35 :   0.2500 0.5000 0.5000  plane waves:     600
 k-point 36 :   0.5000 0.5000 0.5000  plane waves:     560

 maximum and minimum number of plane-waves per node :       613      560

 maximum number of plane-waves:       613
 maximum index in each direction: 
   IXMAX=    4   IYMAX=    4   IZMAX=    6
   IXMIN=   -5   IYMIN=   -5   IZMIN=   -7


 serial   3D FFT for wavefunctions
 parallel 3D FFT for charge:
    minimum data exchange during FFTs selected (reduces bandwidth)


 total amount of memory used by VASP MPI-rank0    31548. kBytes
=======================================================================

   base      :      30000. kBytes
   nonlr-proj:        649. kBytes
   fftplans  :        177. kBytes
   grid      :        304. kBytes
   one-center:         31. kBytes
   wavefun   :        387. kBytes
 
     INWAV:  cpu time    0.0000: real time    0.0001
 Broyden mixing: mesh for mixing (old mesh)
   NGX =  9   NGY =  9   NGZ = 13
  (NGX  = 28   NGY  = 28   NGZ  = 40)
  gives a total of   1053 points

 initial charge density was supplied:
 charge density of overlapping atoms calculated
 number of electron      22.0000000 magnetization 
 keeping initial charge density in first step


--------------------------------------------------------------------------------------------------------


 Maximum index for non-local projection operator         1847
 Maximum index for augmentation-charges          385 (set IRDMAX)


--------------------------------------------------------------------------------------------------------


 First call to EWALD:  gamma=   0.620
 Maximum number of real-space cells 3x 3x 2
 Maximum number of reciprocal cells 3x 3x 3

    FEWALD:  cpu time    0.0012: real time    0.0012


--------------------------------------- Iteration      1(   1)  ---------------------------------------


    POTLOK:  cpu time    0.0038: real time    0.0038
    SETDIJ:  cpu time    0.0023: real time    0.0023
     EDDAV:  cpu time    0.1011: real time    0.1011
       DOS:  cpu time    0.0005: real time    0.0005
    --------------------------------------------
      LOOP:  cpu time    0.1078: real time    0.1078

 eigenvalue-minimisations  :  1152
 total energy-change (2. order) : 0.4367536E+02  (-0.1212467E+04)
 number of electron      22.0000000 magnetization 
 augmentation part       22.0000000 magnetization 

 Free energy of the ion-electron system (eV)
  ---------------------------------------------------
  alpha Z        PSCENC =       219.07150720
  Ewald energy   TEWEN  =     -2219.04048656
  -Hartree energ DENC   =      -647.56473172
  -exchange      EXHF   =         0.00000000
  -V(xc)+E(xc)   XCENC  =        87.87569853
  PAW double counting   =      2164.10458472    -2452.15401350
  entropy T*S    EENTRO =        -0.00285027
  eigenvalues    EBANDS =       109.43199622
  atomic energy  EATOM  =      2781.95366031
  Solvation  Ediel_sol  =         0.00000000
  ---------------------------------------------------
  free energy    TOTEN  =        43.67536494 eV

  energy without entropy =       43.67821521  energy(sigma->0) =       43.67631503


--------------------------------------------------------------------------------------------------------




--------------------------------------- Iteration      1(   2)  ---------------------------------------


     EDDAV:  cpu time    0.1073: real time    0.1073
       DOS:  cpu time    0.0004: real time    0.0004
    --------------------------------------------
      LOOP:  cpu time    0.1077: real time    0.1077

 eigenvalue-minimisations  :  1200
 total energy-change (2. order) :-0.5258182E+02  (-0.5174645E+02)
 number of electron      22.0000000 magnetization 
 augmentation part       22.0000000 magnetization 

 Free energy of the ion-electron system (eV)
  ---------------------------------------------------
  alpha Z        PSCENC =       219.07150720
  Ewald energy   TEWEN  =     -2219.04048656
  -Hartree energ DENC   =      -647.56473172
  -exchange      EXHF   =         0.00000000
  -V(xc)+E(xc)   XCENC  =        87.87569853
  PAW double counting   =      2164.10458472    -2452.15401350
  entropy T*S    EENTRO =        -0.00911022
  eigenvalues    EBANDS =        56.85643359
  atomic energy  EATOM  =      2781.95366031
  Solvation  Ediel_sol  =         0.00000000
  ---------------------------------------------------
  free energy    TOTEN  =        -8.90645764 eV

  energy without entropy =       -8.89734742  energy(sigma->0) =       -8.90342090


--------------------------------------------------------------------------------------------------------




--------------------------------------- Iteration      1(   3)  ---------------------------------------


     EDDAV:  cpu time    0.1672: real time    0.1673
       DOS:  cpu time    0.0004: real time    0.0004
    --------------------------------------------
      LOOP:  cpu time    0.1676: real time    0.1677

 eigenvalue-minimisations  :  1728
 total energy-change (2. order) :-0.1534536E+00  (-0.1534470E+00)
 number of electron      22.0000000 magnetization 
 augmentation part       22.0000000 magnetization 

 Free energy of the ion-electron system (eV)
  ---------------------------------------------------
  alpha Z        PSCENC =       219.07150720
  Ewald energy   TEWEN  =     -2219.04048656
  -Hartree energ DENC   =      -647.56473172
  -exchange      EXHF   =         0.00000000
  -V(xc)+E(xc)   XCENC  =        87.87569853
  PAW double counting   =      2164.10458472    -2452.15401350
  entropy T*S    EENTRO =        -0.00923727
  eigenvalues    EBANDS =        56.70310701
  atomic energy  EATOM  =      2781.95366031
  Solvation  Ediel_sol  =         0.00000000
  ---------------------------------------------------
  free energy    TOTEN  =        -9.05991127 eV

  energy without entropy =       -9.05067400  energy(sigma->0) =       -9.05683218


--------------------------------------------------------------------------------------------------------




--------------------------------------- Iteration      1(   4)  ---------------------------------------


     EDDAV:  cpu time    0.1022: real time    0.1022
       DOS:  cpu time    0.0004: real time    0.0004
    --------------------------------------------
      LOOP:  cpu time    0.1025: real time    0.1026

 eigenvalue-minimisations  :  1200
 total energy-change (2. order) :-0.8836920E-04  (-0.8836906E-04)
 number of electron      22.0000000 magnetization 
 augmentation part       22.0000000 magnetization 

 Free energy of the ion-electron system (eV)
  ---------------------------------------------------
  alpha Z        PSCENC =       219.07150720
  Ewald energy   TEWEN  =     -2219.04048656
  -Hartree energ DENC   =      -647.56473172
  -exchange      EXHF   =         0.00000000
  -V(xc)+E(xc)   XCENC  =        87.87569853
  PAW double counting   =      2164.10458472    -2452.15401350
  entropy T*S    EENTRO =        -0.00923670
  eigenvalues    EBANDS =        56.70301807
  atomic energy  EATOM  =      2781.95366031
  Solvation  Ediel_sol  =         0.00000000
  ---------------------------------------------------
  free energy    TOTEN  =        -9.05999964 eV

  energy without entropy =       -9.05076294  energy(sigma->0) =       -9.05692074


--------------------------------------------------------------------------------------------------------




--------------------------------------- Iteration      1(   5)  ---------------------------------------


     EDDAV:  cpu time    0.1557: real time    0.1557
       DOS:  cpu time    0.0004: real time    0.0004
    CHARGE:  cpu time    0.0051: real time    0.0051
    MIXING:  cpu time    0.0003: real time    0.0003
    --------------------------------------------
      LOOP:  cpu time    0.1615: real time    0.1616

 eigenvalue-minimisations  :  1584
 total energy-change (2. order) :-0.2145193E-06  (-0.2152148E-06)
 number of electron      22.0000061 magnetization 
 augmentation part       13.3860379 magnetization 

 Broyden mixing:
  rms(total) = 0.98859E+00    rms(broyden)= 0.98858E+00
  rms(prec ) = 0.23737E+01
  weight for this iteration     100.00

 Free energy of the ion-electron system (eV)
  ---------------------------------------------------
  alpha Z        PSCENC =       219.07150720
  Ewald energy   TEWEN  =     -2219.04048656
  -Hartree energ DENC   =      -647.56473172
  -exchange      EXHF   =         0.00000000
  -V(xc)+E(xc)   XCENC  =        87.87569853
  PAW double counting   =      2164.10458472    -2452.15401350
  entropy T*S    EENTRO =        -0.00923670
  eigenvalues    EBANDS =        56.70301786
  atomic energy  EATOM  =      2781.95366031
  Solvation  Ediel_sol  =         0.00000000
  ---------------------------------------------------
  free energy    TOTEN  =        -9.05999985 eV

  energy without entropy =       -9.05076315  energy(sigma->0) =       -9.05692095


--------------------------------------------------------------------------------------------------------




--------------------------------------- Iteration      1(   6)  ---------------------------------------


    POTLOK:  cpu time    0.0020: real time    0.0020
    SETDIJ:  cpu time    0.0018: real time    0.0018
     EDDAV:  cpu time    0.0986: real time    0.0986
       DOS:  cpu time    0.0004: real time    0.0004
    CHARGE:  cpu time    0.0024: real time    0.0024
    MIXING:  cpu time    0.0003: real time    0.0004
    --------------------------------------------
      LOOP:  cpu time    0.1055: real time    0.1056

 eigenvalue-minimisations  :  1184
 total energy-change (2. order) : 0.1115730E+01  (-0.3201012E+01)
 number of electron      22.0000067 magnetization 
 augmentation part       14.8732253 magnetization 

 Broyden mixing:
  rms(total) = 0.41708E+00    rms(broyden)= 0.41704E+00
  rms(prec ) = 0.91442E+00
  weight for this iteration     100.00

 eigenvalues of (default mixing * dielectric matrix)
  average eigenvalue GAMMA=   0.7053
  0.7053

 Free energy of the ion-electron system (eV)
  ---------------------------------------------------
  alpha Z        PSCENC =       219.07150720
  Ewald energy   TEWEN  =     -2219.04048656
  -Hartree energ DENC   =      -598.34704590
  -exchange      EXHF   =         0.00000000
  -V(xc)+E(xc)   XCENC  =        85.37324298
  PAW double counting   =      2120.44594536    -2392.67720810
  entropy T*S    EENTRO =        -0.00260743
  eigenvalues    EBANDS =        -4.72127806
  atomic energy  EATOM  =      2781.95366031
  Solvation  Ediel_sol  =         0.00000000
  ---------------------------------------------------
  free energy    TOTEN  =        -7.94427020 eV

  energy without entropy =       -7.94166277  energy(sigma->0) =       -7.94340106


--------------------------------------------------------------------------------------------------------




--------------------------------------- Iteration      1(   7)  ---------------------------------------


    POTLOK:  cpu time    0.0021: real time    0.0022
    SETDIJ:  cpu time    0.0018: real time    0.0018
     EDDAV:  cpu time    0.1030: real time    0.1029
       DOS:  cpu time    0.0003: real time    0.0003
    CHARGE:  cpu time    0.0024: real time    0.0024
    MIXING:  cpu time    0.0002: real time    0.0002
    --------------------------------------------
      LOOP:  cpu time    0.1098: real time    0.1098

 eigenvalue-minimisations  :  1216
 total energy-change (2. order) : 0.5919586E+00  (-0.4611588E+00)
 number of electron      22.0000064 magnetization 
 augmentation part       14.3295956 magnetization 

 Broyden mixing:
  rms(total) = 0.88466E-01    rms(broyden)= 0.88454E-01
  rms(prec ) = 0.22279E+00
  weight for this iteration     100.00

 eigenvalues of (default mixing * dielectric matrix)
  average eigenvalue GAMMA=   1.4180
  0.6604  2.1756

 Free energy of the ion-electron system (eV)
  ---------------------------------------------------
  alpha Z        PSCENC =       219.07150720
  Ewald energy   TEWEN  =     -2219.04048656
  -Hartree energ DENC   =      -611.46673976
  -exchange      EXHF   =         0.00000000
  -V(xc)+E(xc)   XCENC  =        86.06804931
  PAW double counting   =      2163.69927856    -2447.64929752
  entropy T*S    EENTRO =        -0.00113541
  eigenvalues    EBANDS =        20.01285225
  atomic energy  EATOM  =      2781.95366031
  Solvation  Ediel_sol  =         0.00000000
  ---------------------------------------------------
  free energy    TOTEN  =        -7.35231163 eV

  energy without entropy =       -7.35117622  energy(sigma->0) =       -7.35193316


--------------------------------------------------------------------------------------------------------




--------------------------------------- Iteration      1(   8)  ---------------------------------------


    POTLOK:  cpu time    0.0020: real time    0.0021
    SETDIJ:  cpu time    0.0018: real time    0.0018
     EDDAV:  cpu time    0.0948: real time    0.0948
       DOS:  cpu time    0.0003: real time    0.0003
    CHARGE:  cpu time    0.0024: real time    0.0024
    MIXING:  cpu time    0.0002: real time    0.0002
    --------------------------------------------
      LOOP:  cpu time    0.1016: real time    0.1016

 eigenvalue-minimisations  :  1152
 total energy-change (2. order) : 0.2416910E-01  (-0.7764779E-03)
 number of electron      22.0000064 magnetization 
 augmentation part       14.3318106 magnetization 

 Broyden mixing:
  rms(total) = 0.39558E-01    rms(broyden)= 0.39557E-01
  rms(prec ) = 0.96701E-01
  weight for this iteration     100.00

 eigenvalues of (default mixing * dielectric matrix)
  average eigenvalue GAMMA=   1.4176
  0.6804  1.0162  2.5563

 Free energy of the ion-electron system (eV)
  ---------------------------------------------------
  alpha Z        PSCENC =       219.07150720
  Ewald energy   TEWEN  =     -2219.04048656
  -Hartree energ DENC   =      -604.90822683
  -exchange      EXHF   =         0.00000000
  -V(xc)+E(xc)   XCENC  =        85.76369646
  PAW double counting   =      2195.20751284    -2484.73245309
  entropy T*S    EENTRO =        -0.00125242
  eigenvalues    EBANDS =        19.35789956
  atomic energy  EATOM  =      2781.95366031
  Solvation  Ediel_sol  =         0.00000000
  ---------------------------------------------------
  free energy    TOTEN  =        -7.32814253 eV

  energy without entropy =       -7.32689011  energy(sigma->0) =       -7.32772506


--------------------------------------------------------------------------------------------------------




--------------------------------------- Iteration      1(   9)  ---------------------------------------


    POTLOK:  cpu time    0.0020: real time    0.0021
    SETDIJ:  cpu time    0.0018: real time    0.0018
     EDDAV:  cpu time    0.1102: real time    0.1102
       DOS:  cpu time    0.0003: real time    0.0003
    CHARGE:  cpu time    0.0024: real time    0.0024
    MIXING:  cpu time    0.0003: real time    0.0003
    --------------------------------------------
      LOOP:  cpu time    0.1170: real time    0.1171

 eigenvalue-minimisations  :  1280
 total energy-change (2. order) : 0.3197103E-02  (-0.2217981E-02)
 number of electron      22.0000065 magnetization 
 augmentation part       14.3706161 magnetization 

 Broyden mixing:
  rms(total) = 0.29735E-02    rms(broyden)= 0.29715E-02
  rms(prec ) = 0.59938E-02
  weight for this iteration     100.00

 eigenvalues of (default mixing * dielectric matrix)
  average eigenvalue GAMMA=   1.6727
  0.6830  0.9697  2.5191  2.5191

 Free energy of the ion-electron system (eV)
  ---------------------------------------------------
  alpha Z        PSCENC =       219.07150720
  Ewald energy   TEWEN  =     -2219.04048656
  -Hartree energ DENC   =      -602.66393761
  -exchange      EXHF   =         0.00000000
  -V(xc)+E(xc)   XCENC  =        85.65440654
  PAW double counting   =      2199.37872450    -2489.26057888
  entropy T*S    EENTRO =        -0.00166015
  eigenvalues    EBANDS =        17.58341922
  atomic energy  EATOM  =      2781.95366031
  Solvation  Ediel_sol  =         0.00000000
  ---------------------------------------------------
  free energy    TOTEN  =        -7.32494543 eV

  energy without entropy =       -7.32328528  energy(sigma->0) =       -7.32439205


--------------------------------------------------------------------------------------------------------




--------------------------------------- Iteration      1(  10)  ---------------------------------------


    POTLOK:  cpu time    0.0021: real time    0.0021
    SETDIJ:  cpu time    0.0018: real time    0.0018
     EDDAV:  cpu time    0.0672: real time    0.0672
       DOS:  cpu time    0.0004: real time    0.0004
    --------------------------------------------
      LOOP:  cpu time    0.0714: real time    0.0715

 eigenvalue-minimisations  :   720
 total energy-change (2. order) :-0.1218827E-04  (-0.5921198E-05)
 number of electron      22.0000065 magnetization 
 augmentation part       14.3706161 magnetization 

 Free energy of the ion-electron system (eV)
  ---------------------------------------------------
  alpha Z        PSCENC =       219.07150720
  Ewald energy   TEWEN  =     -2219.04048656
  -Hartree energ DENC   =      -602.83047276
  -exchange      EXHF   =         0.00000000
  -V(xc)+E(xc)   XCENC  =        85.66287291
  PAW double counting   =      2199.52347080    -2489.28890434
  entropy T*S    EENTRO =        -0.00165653
  eigenvalues    EBANDS =        17.62505136
  atomic energy  EATOM  =      2781.95366031
  Solvation  Ediel_sol  =         0.00000000
  ---------------------------------------------------
  free energy    TOTEN  =        -7.32495762 eV

  energy without entropy =       -7.32330108  energy(sigma->0) =       -7.32440544


--------------------------------------------------------------------------------------------------------




 average (electrostatic) potential at core
  the test charge radii are     1.0053
  (the norm of the test charge is              1.0000)
       1 -39.8664       2 -39.8664
 
 
 
 E-fermi :   4.0053     XC(G=0): -12.8768     alpha+bet : -9.7516


 k-point     1 :       0.0000    0.0000    0.0000
  band No.  band energies     occupation 
      1      -5.5460      2.00000
      2      -1.0705      2.00000
      3      -0.6324      2.00000
      4       0.7829      2.00000
      5       0.8024      2.00000
      6       0.8024      2.00000
      7       1.6273      2.00000
      8       1.6529      2.00000
      9       2.1868      2.00000
     10       2.3632      2.00000
     11       2.3632      2.00000
     12       5.4051     -0.00000
     13      11.1018      0.00000
     14      17.1684      0.00000
     15      17.1684      0.00000
     16      21.7051      0.00000

 k-point     2 :       0.2500    0.0000    0.0000
  band No.  band energies     occupation 
      1      -4.0681      2.00000
      2      -0.4871      2.00000
      3      -0.2631      2.00000
      4       0.5118      2.00000
      5       0.9662      2.00000
      6       1.0578      2.00000
      7       1.0717      2.00000
      8       1.4178      2.00000
      9       1.7636      2.00000
     10       1.8199      2.00000
     11       2.1642      2.00000
     12       8.2674     -0.00000
     13       9.6863      0.00000
     14      11.8469      0.00000
     15      19.2649      0.00000
     16      20.8871      0.00000

 k-point     3 :       0.5000    0.0000    0.0000
  band No.  band energies     occupation 
      1      -0.8737      2.00000
      2      -0.8737      2.00000
      3       0.2935      2.00000
      4       0.2936      2.00000
      5       0.5051      2.00000
      6       0.5052      2.00000
      7       1.2972      2.00000
      8       1.2972      2.00000
      9       1.6392      2.00000
     10       1.6393      2.00000
     11       3.5651      2.00792
     12       3.5652      2.00793
     13      13.7130      0.00000
     14      13.7130      0.00000
     15      14.9533      0.00000
     16      14.9533      0.00000

 k-point     4 :       0.0000    0.2500    0.0000
  band No.  band energies     occupation 
      1      -4.0681      2.00000
      2      -0.4871      2.00000
      3      -0.2631      2.00000
      4       0.5118      2.00000
      5       0.9662      2.00000
      6       1.0578      2.00000
      7       1.0717      2.00000
      8       1.4178      2.00000
      9       1.7636      2.00000
     10       1.8199      2.00000
     11       2.1642      2.00000
     12       8.2674     -0.00000
     13       9.6863      0.00000
     14      11.8469      0.00000
     15      19.2649      0.00000
     16      20.8871      0.00000

 k-point     5 :       0.2500    0.2500    0.0000
  band No.  band energies     occupation 
      1      -2.7639      2.00000
      2      -0.3245      2.00000
      3       0.0742      2.00000
      4       0.2730      2.00000
      5       0.2902      2.00000
      6       1.1735      2.00000
      7       1.4558      2.00000
      8       1.4757      2.00000
      9       1.5934      2.00000
     10       1.9237      2.00000
     11       2.3640      2.00000
     12      10.1541      0.00000
     13      10.1630      0.00000
     14      12.2762      0.00000
     15      12.8568      0.00000
     16      21.2222      0.00000

 k-point     6 :       0.5000    0.2500    0.0000
  band No.  band energies     occupation 
      1      -0.7857      2.00000
      2      -0.7857      2.00000
      3      -0.2336      2.00000
      4      -0.2336      2.00000
      5       0.9580      2.00000
      6       0.9581      2.00000
      7       1.9205      2.00000
      8       1.9205      2.00000
      9       2.0698      2.00000
     10       2.0698      2.00000
     11       4.1095      0.23699
     12       4.1095      0.23685
     13      14.9495      0.00000
     14      14.9495      0.00000
     15      15.6739      0.00000
     16      15.6739      0.00000

 k-point     7 :      -0.2500    0.2500    0.0000
  band No.  band energies     occupation 
      1      -2.7639      2.00000
      2      -0.3245      2.00000
      3       0.0742      2.00000
      4       0.2730      2.00000
      5       0.2902      2.00000
      6       1.1735      2.00000
      7       1.4558      2.00000
      8       1.4757      2.00000
      9       1.5934      2.00000
     10       1.9237      2.00000
     11       2.3640      2.00000
     12      10.1541      0.00000
     13      10.1630      0.00000
     14      12.2762      0.00000
     15      12.8568      0.00000
     16      21.2222      0.00000

 k-point     8 :       0.0000    0.5000    0.0000
  band No.  band energies     occupation 
      1      -0.8737      2.00000
      2      -0.8737      2.00000
      3       0.2935      2.00000
      4       0.2936      2.00000
      5       0.5051      2.00000
      6       0.5052      2.00000
      7       1.2972      2.00000
      8       1.2972      2.00000
      9       1.6392      2.00000
     10       1.6393      2.00000
     11       3.5651      2.00792
     12       3.5652      2.00793
     13      13.7130      0.00000
     14      13.7130      0.00000
     15      14.9533      0.00000
     16      14.9533      0.00000

 k-point     9 :       0.2500    0.5000    0.0000
  band No.  band energies     occupation 
      1      -0.7857      2.00000
      2      -0.7857      2.00000
      3      -0.2336      2.00000
      4      -0.2336      2.00000
      5       0.9580      2.00000
      6       0.9581      2.00000
      7       1.9205      2.00000
      8       1.9205      2.00000
      9       2.0698      2.00000
     10       2.0698      2.00000
     11       4.1095      0.23699
     12       4.1095      0.23685
     13      14.9495      0.00000
     14      14.9495      0.00000
     15      15.6739      0.00000
     16      15.6739      0.00000

 k-point    10 :       0.5000    0.5000    0.0000
  band No.  band energies     occupation 
      1      -1.0830      2.00000
      2      -1.0829      2.00000
      3      -0.6151      2.00000
      4      -0.6151      2.00000
      5       2.2066      2.00000
      6       2.2067      2.00000
      7       2.3423      2.00000
      8       2.3424      2.00000
      9       2.3631      2.00000
     10       2.3631      2.00000
     11       5.3994     -0.00000
     12       5.3994     -0.00000
     13      11.0999      0.00000
     14      11.0999      0.00000
     15      17.1646      0.00000
     16      17.1646      0.00000

 k-point    11 :       0.0000    0.0000    0.2500
  band No.  band energies     occupation 
      1      -4.7904      2.00000
      2      -1.1819      2.00000
      3      -0.4346      2.00000
      4       0.5658      2.00000
      5       0.9831      2.00000
      6       0.9831      2.00000
      7       1.4615      2.00000
      8       1.7078      2.00000
      9       2.0734      2.00000
     10       2.0734      2.00000
     11       2.1034      2.00000
     12       2.6574      2.00000
     13      15.4539      0.00000
     14      18.2643      0.00000
     15      18.2643      0.00000
     16      22.0568      0.00000

 k-point    12 :       0.2500    0.0000    0.2500
  band No.  band energies     occupation 
      1      -3.4079      2.00000
      2      -0.6212      2.00000
      3      -0.0496      2.00000
      4       0.5426      2.00000
      5       0.8290      2.00000
      6       0.9560      2.00000
      7       0.9576      2.00000
      8       1.4445      2.00000
      9       1.7159      2.00000
     10       1.7298      2.00000
     11       2.2545      2.00000
     12       4.8407     -0.00000
     13      10.6869      0.00000
     14      16.5002      0.00000
     15      16.6278      0.00000
     16      20.2157      0.00000

 k-point    13 :       0.5000    0.0000    0.2500
  band No.  band energies     occupation 
      1      -1.1089      2.00000
      2      -1.1089      2.00000
      3       0.6439      2.00000
      4       0.6439      2.00000
      5       0.9507      2.00000
      6       0.9507      2.00000
      7       1.0162      2.00000
      8       1.0162      2.00000
      9       2.0046      2.00000
     10       2.0046      2.00000
     11       3.4339      2.00041
     12       3.4340      2.00041
     13       9.6656      0.00000
     14       9.6656      0.00000
     15      20.4442      0.00000
     16      20.4442      0.00000

 k-point    14 :      -0.2500    0.0000    0.2500
  band No.  band energies     occupation 
      1      -3.4079      2.00000
      2      -0.6212      2.00000
      3      -0.0496      2.00000
      4       0.5426      2.00000
      5       0.8290      2.00000
      6       0.9560      2.00000
      7       0.9576      2.00000
      8       1.4445      2.00000
      9       1.7159      2.00000
     10       1.7298      2.00000
     11       2.2545      2.00000
     12       4.8407     -0.00000
     13      10.6869      0.00000
     14      16.5002      0.00000
     15      16.6278      0.00000
     16      20.2157      0.00000

 k-point    15 :       0.0000    0.2500    0.2500
  band No.  band energies     occupation 
      1      -3.4079      2.00000
      2      -0.6212      2.00000
      3      -0.0496      2.00000
      4       0.5426      2.00000
      5       0.8290      2.00000
      6       0.9560      2.00000
      7       0.9576      2.00000
      8       1.4445      2.00000
      9       1.7159      2.00000
     10       1.7298      2.00000
     11       2.2545      2.00000
     12       4.8407     -0.00000
     13      10.6869      0.00000
     14      16.5002      0.00000
     15      16.6278      0.00000
     16      20.2157      0.00000

 k-point    16 :       0.2500    0.2500    0.2500
  band No.  band energies     occupation 
      1      -2.1709      2.00000
      2      -0.1181      2.00000
      3       0.0713      2.00000
      4       0.1536      2.00000
      5       0.2974      2.00000
      6       0.7890      2.00000
      7       1.4669      2.00000
      8       1.5383      2.00000
      9       1.5487      2.00000
     10       2.0712      2.00000
     11       2.3407      2.00000
     12       6.3638     -0.00000
     13      11.1426      0.00000
     14      13.1601      0.00000
     15      17.3712      0.00000
     16      17.8061      0.00000

 k-point    17 :       0.5000    0.2500    0.2500
  band No.  band energies     occupation 
      1      -0.6213      2.00000
      2      -0.6213      2.00000
      3      -0.0490      2.00000
      4      -0.0490      2.00000
      5       0.8245      2.00000
      6       0.8246      2.00000
      7       1.4530      2.00000
      8       1.4530      2.00000
      9       2.2550      2.00000
     10       2.2550      2.00000
     11       4.8332     -0.00000
     12       4.8333     -0.00000
     13      10.6890      0.00000
     14      10.6890      0.00000
     15      16.6265      0.00000
     16      16.6265      0.00000

 k-point    18 :      -0.2500    0.2500    0.2500
  band No.  band energies     occupation 
      1      -2.1709      2.00000
      2      -0.1181      2.00000
      3       0.0713      2.00000
      4       0.1536      2.00000
      5       0.2974      2.00000
      6       0.7890      2.00000
      7       1.4669      2.00000
      8       1.5383      2.00000
      9       1.5487      2.00000
     10       2.0712      2.00000
     11       2.3407      2.00000
     12       6.3638     -0.00000
     13      11.1426      0.00000
     14      13.1601      0.00000
     15      17.3712      0.00000
     16      17.8061      0.00000

 k-point    19 :       0.0000    0.5000    0.2500
  band No.  band energies     occupation 
      1      -1.1089      2.00000
      2      -1.1089      2.00000
      3       0.6439      2.00000
      4       0.6439      2.00000
      5       0.9507      2.00000
      6       0.9507      2.00000
      7       1.0162      2.00000
      8       1.0162      2.00000
      9       2.0046      2.00000
     10       2.0046      2.00000
     11       3.4339      2.00041
     12       3.4340      2.00041
     13       9.6656      0.00000
     14       9.6656      0.00000
     15      20.4442      0.00000
     16      20.4442      0.00000

 k-point    20 :       0.2500    0.5000    0.2500
  band No.  band energies     occupation 
      1      -0.6213      2.00000
      2      -0.6213      2.00000
      3      -0.0490      2.00000
      4      -0.0490      2.00000
      5       0.8245      2.00000
      6       0.8246      2.00000
      7       1.4530      2.00000
      8       1.4530      2.00000
      9       2.2550      2.00000
     10       2.2550      2.00000
     11       4.8332     -0.00000
     12       4.8333     -0.00000
     13      10.6890      0.00000
     14      10.6890      0.00000
     15      16.6265      0.00000
     16      16.6265      0.00000

 k-point    21 :       0.5000    0.5000    0.2500
  band No.  band energies     occupation 
      1      -0.7593      2.00000
      2      -0.7593      2.00000
      3      -0.3947      2.00000
      4      -0.3947      2.00000
      5       1.4291      2.00000
      6       1.4291      2.00000
      7       1.9585      2.00000
      8       1.9585      2.00000
      9       2.3427      2.00000
     10       2.3428      2.00000
     11       7.0137     -0.00000
     12       7.0137     -0.00000
     13      11.3959      0.00000
     14      11.3959      0.00000
     15      14.0255      0.00000
     16      14.0255      0.00000

 k-point    22 :      -0.2500    0.5000    0.2500
  band No.  band energies     occupation 
      1      -0.6213      2.00000
      2      -0.6213      2.00000
      3      -0.0490      2.00000
      4      -0.0490      2.00000
      5       0.8245      2.00000
      6       0.8246      2.00000
      7       1.4530      2.00000
      8       1.4530      2.00000
      9       2.2550      2.00000
     10       2.2550      2.00000
     11       4.8332     -0.00000
     12       4.8333     -0.00000
     13      10.6890      0.00000
     14      10.6890      0.00000
     15      16.6265      0.00000
     16      16.6265      0.00000

 k-point    23 :       0.0000   -0.2500    0.2500
  band No.  band energies     occupation 
      1      -3.4079      2.00000
      2      -0.6212      2.00000
      3      -0.0496      2.00000
      4       0.5426      2.00000
      5       0.8290      2.00000
      6       0.9560      2.00000
      7       0.9576      2.00000
      8       1.4445      2.00000
      9       1.7159      2.00000
     10       1.7298      2.00000
     11       2.2545      2.00000
     12       4.8407     -0.00000
     13      10.6869      0.00000
     14      16.5002      0.00000
     15      16.6278      0.00000
     16      20.2157      0.00000

 k-point    24 :       0.2500   -0.2500    0.2500
  band No.  band energies     occupation 
      1      -2.1709      2.00000
      2      -0.1181      2.00000
      3       0.0713      2.00000
      4       0.1536      2.00000
      5       0.2974      2.00000
      6       0.7890      2.00000
      7       1.4669      2.00000
      8       1.5383      2.00000
      9       1.5487      2.00000
     10       2.0712      2.00000
     11       2.3407      2.00000
     12       6.3638     -0.00000
     13      11.1426      0.00000
     14      13.1601      0.00000
     15      17.3712      0.00000
     16      17.8061      0.00000

 k-point    25 :       0.5000   -0.2500    0.2500
  band No.  band energies     occupation 
      1      -0.6213      2.00000
      2      -0.6213      2.00000
      3      -0.0490      2.00000
      4      -0.0490      2.00000
      5       0.8245      2.00000
      6       0.8246      2.00000
      7       1.4530      2.00000
      8       1.4530      2.00000
      9       2.2550      2.00000
     10       2.2550      2.00000
     11       4.8332     -0.00000
     12       4.8333     -0.00000
     13      10.6890      0.00000
     14      10.6890      0.00000
     15      16.6265      0.00000
     16      16.6265      0.00000

 k-point    26 :      -0.2500   -0.2500    0.2500
  band No.  band energies     occupation 
      1      -2.1709      2.00000
      2      -0.1181      2.00000
      3       0.0713      2.00000
      4       0.1536      2.00000
      5       0.2974      2.00000
      6       0.7890      2.00000
      7       1.4669      2.00000
      8       1.5383      2.00000
      9       1.5487      2.00000
     10       2.0712      2.00000
     11       2.3407      2.00000
     12       6.3638     -0.00000
     13      11.1426      0.00000
     14      13.1601      0.00000
     15      17.3712      0.00000
     16      17.8061      0.00000

 k-point    27 :       0.0000    0.0000    0.5000
  band No.  band energies     occupation 
      1      -2.7633      2.00000
      2      -2.7632      2.00000
      3       0.0559      2.00000
      4       0.0560      2.00000
      5       1.1917      2.00000
      6       1.1917      2.00000
      7       1.4757      2.00000
      8       1.4757      2.00000
      9       1.4757      2.00000
     10       1.4757      2.00000
     11       1.9040      2.00000
     12       1.9041      2.00000
     13      21.2263      0.00000
     14      21.2263      0.00000
     15      21.2263      0.00000
     16      21.2263      0.00000

 k-point    28 :       0.2500    0.0000    0.5000
  band No.  band energies     occupation 
      1      -1.7839      2.00000
      2      -1.7838      2.00000
      3       0.4030      2.00000
      4       0.4031      2.00000
      5       0.7788      2.00000
      6       0.7789      2.00000
      7       1.0657      2.00000
      8       1.0657      2.00000
      9       2.1052      2.00000
     10       2.1052      2.00000
     11       2.2836      2.00000
     12       2.2836      2.00000
     13      12.9870      0.00000
     14      12.9870      0.00000
     15      22.9174      0.00000
     16      22.9175      0.00000

 k-point    29 :       0.5000    0.0000    0.5000
  band No.  band energies     occupation 
      1      -1.2726      2.00000
      2      -1.2725      2.00000
      3       0.7614      2.00000
      4       0.7614      2.00000
      5       0.7704      2.00000
      6       0.7705      2.00000
      7       2.2127      2.00000
      8       2.2127      2.00000
      9       2.2153      2.00000
     10       2.2153      2.00000
     11       2.8660      2.00000
     12       2.8661      2.00000
     13       7.7057     -0.00000
     14       7.7057     -0.00000
     15      25.4746      0.00000
     16      25.4747      0.00000

 k-point    30 :       0.0000    0.2500    0.5000
  band No.  band energies     occupation 
      1      -1.7839      2.00000
      2      -1.7838      2.00000
      3       0.4030      2.00000
      4       0.4031      2.00000
      5       0.7788      2.00000
      6       0.7789      2.00000
      7       1.0657      2.00000
      8       1.0657      2.00000
      9       2.1052      2.00000
     10       2.1052      2.00000
     11       2.2836      2.00000
     12       2.2836      2.00000
     13      12.9870      0.00000
     14      12.9870      0.00000
     15      22.9174      0.00000
     16      22.9175      0.00000

 k-point    31 :       0.2500    0.2500    0.5000
  band No.  band energies     occupation 
      1      -0.8685      2.00000
      2      -0.8685      2.00000
      3       0.2846      2.00000
      4       0.2846      2.00000
      5       0.4971      2.00000
      6       0.4971      2.00000
      7       1.3159      2.00000
      8       1.3160      2.00000
      9       1.6292      2.00000
     10       1.6292      2.00000
     11       3.5702      2.00871
     12       3.5702      2.00871
     13      13.7055      0.00000
     14      13.7055      0.00000
     15      14.9582      0.00000
     16      14.9582      0.00000

 k-point    32 :       0.5000    0.2500    0.5000
  band No.  band energies     occupation 
      1      -0.4983      2.00000
      2      -0.4983      2.00000
      3       0.1927      2.00000
      4       0.1928      2.00000
      5       0.7389      2.00000
      6       0.7390      2.00000
      7       1.2606      2.00000
      8       1.2607      2.00000
      9       2.1540      2.00000
     10       2.1541      2.00000
     11       6.0073     -0.00000
     12       6.0073     -0.00000
     13       8.2126     -0.00000
     14       8.2127     -0.00000
     15      18.2612      0.00000
     16      18.2612      0.00000

 k-point    33 :      -0.2500    0.2500    0.5000
  band No.  band energies     occupation 
      1      -0.8685      2.00000
      2      -0.8685      2.00000
      3       0.2846      2.00000
      4       0.2846      2.00000
      5       0.4971      2.00000
      6       0.4971      2.00000
      7       1.3159      2.00000
      8       1.3160      2.00000
      9       1.6292      2.00000
     10       1.6292      2.00000
     11       3.5702      2.00871
     12       3.5702      2.00871
     13      13.7055      0.00000
     14      13.7055      0.00000
     15      14.9582      0.00000
     16      14.9582      0.00000

 k-point    34 :       0.0000    0.5000    0.5000
  band No.  band energies     occupation 
      1      -1.2726      2.00000
      2      -1.2725      2.00000
      3       0.7614      2.00000
      4       0.7614      2.00000
      5       0.7704      2.00000
      6       0.7705      2.00000
      7       2.2127      2.00000
      8       2.2127      2.00000
      9       2.2153      2.00000
     10       2.2153      2.00000
     11       2.8660      2.00000
     12       2.8661      2.00000
     13       7.7057     -0.00000
     14       7.7057     -0.00000
     15      25.4746      0.00000
     16      25.4747      0.00000

 k-point    35 :       0.2500    0.5000    0.5000
  band No.  band energies     occupation 
      1      -0.4983      2.00000
      2      -0.4983      2.00000
      3       0.1927      2.00000
      4       0.1928      2.00000
      5       0.7389      2.00000
      6       0.7390      2.00000
      7       1.2606      2.00000
      8       1.2607      2.00000
      9       2.1540      2.00000
     10       2.1541      2.00000
     11       6.0073     -0.00000
     12       6.0073     -0.00000
     13       8.2126     -0.00000
     14       8.2127     -0.00000
     15      18.2612      0.00000
     16      18.2612      0.00000

 k-point    36 :       0.5000    0.5000    0.5000
  band No.  band energies     occupation 
      1      -0.3392      2.00000
      2      -0.3392      2.00000
      3       0.2898      2.00000
      4       0.2898      2.00000
      5       0.2898      2.00000
      6       0.2898      2.00000
      7       1.6126      2.00000
      8       1.6127      2.00000
      9       2.3431      2.00000
     10       2.3432      2.00000
     11      10.1571      0.00000
     12      10.1571      0.00000
     13      10.1571      0.00000
     14      10.1571      0.00000
     15      12.2749      0.00000
     16      12.2750      0.00000


--------------------------------------------------------------------------------------------------------


 soft charge-density along one line, spin component           1
         0         1         2         3         4         5         6         7         8         9
 total charge-density along one line
 
 pseudopotential strength for first ion, spin component:           1
 -6.372   0.000   0.000   0.000   0.000   0.000   0.000   0.000  -0.000   0.000  -0.286   0.000  -0.000   0.000  -0.000   0.000
  0.000   0.000  -6.375   0.000  -0.000   0.000  -0.000   0.000   0.000   0.000  -0.000   0.000  -0.285   0.000   0.000   0.000
  0.000   0.000  -0.000   0.000  -6.350   0.000   0.000   0.000   0.000   0.000  -0.000   0.000   0.000   0.000  -0.296   0.000
  0.000   0.000  -0.000   0.000   0.000   0.000  -6.375   0.000   0.000   0.000  -0.000   0.000   0.000   0.000  -0.000   0.000
 -0.000   0.000   0.000   0.000   0.000   0.000   0.000   0.000  -6.391   0.000   0.000   0.000  -0.000   0.000  -0.000   0.000
 -0.286   0.000  -0.000   0.000  -0.000   0.000  -0.000   0.000   0.000   0.000   1.696   0.000   0.000   0.000   0.000   0.000
 -0.000   0.000  -0.285   0.000   0.000   0.000   0.000   0.000  -0.000   0.000   0.000   0.000   1.696   0.000   0.000   0.000
 -0.000   0.000   0.000   0.000  -0.296   0.000  -0.000   0.000  -0.000   0.000   0.000   0.000   0.000   0.000   1.701   0.000
 -0.000   0.000   0.000   0.000  -0.000   0.000  -0.285   0.000  -0.000   0.000   0.000   0.000  -0.000   0.000   0.000   0.000
  0.000   0.000  -0.000   0.000  -0.000   0.000  -0.000   0.000  -0.278   0.000  -0.000   0.000   0.000   0.000   0.000   0.000
  0.000   0.000   0.000   0.000  -0.002   0.000  -0.000   0.000   0.000   0.000   0.000   0.000  -0.000   0.000   0.001   0.000
 -0.000   0.000   0.000   0.000   0.000   0.000   0.000   0.000  -0.000   0.000   0.000   0.000  -0.000   0.000  -0.000   0.000
  0.000   0.000  -0.000   0.000  -0.000   0.000  -0.000   0.000  -0.000   0.000  -0.000   0.000   0.000   0.000   0.000   0.000
 -0.000   0.000   0.000   0.000  -0.000   0.000   0.000   0.000   0.000   0.000   0.000   0.000  -0.000   0.000   0.000   0.000
  0.000   0.000  -0.000   0.000  -0.000   0.000  -0.000   0.000   0.000   0.000  -0.000   0.000   0.000   0.000   0.000   0.000
 -0.000   0.000   0.000   0.000   0.000   0.000   0.000   0.000   0.000   0.000   0.000   0.000  -0.000   0.000  -0.000   0.000
  0.000   0.000  -0.000   0.000   0.000   0.000  -0.000   0.000   0.000   0.000  -0.000   0.000   0.000   0.000  -0.000   0.000
 -0.000   0.000   0.000   0.000   0.000   0.000   0.000   0.000  -0.000   0.000   0.000   0.000  -0.000   0.000  -0.000   0.000
 total augmentation occupancy for first ion, spin component:           1
  1.914  -0.000  -0.000  -0.000  -0.000  -0.053   0.000  -0.000  -0.000   0.000  -0.000   0.000   0.000   0.000   0.000  -0.000
 -0.000   1.911   0.000   0.000   0.000   0.000  -0.012   0.000   0.000   0.000   0.000   0.000  -0.000   0.000  -0.000  -0.000
 -0.000   0.000   1.918   0.000   0.000  -0.000   0.000  -0.057   0.000   0.000   0.005  -0.003   0.000  -0.000   0.000   0.000
 -0.000   0.000   0.000   1.911   0.000  -0.000   0.000  -0.000  -0.012   0.000   0.000   0.000  -0.000   0.000  -0.000  -0.000
 -0.000   0.000   0.000   0.000   1.901  -0.000   0.000   0.000   0.000  -0.013  -0.000  -0.000  -0.000   0.000   0.000  -0.000
 -0.053   0.000  -0.000  -0.000  -0.000   0.077  -0.000  -0.000  -0.000  -0.000   0.000   0.000   0.000  -0.000   0.000   0.000
  0.000  -0.012   0.000   0.000   0.000  -0.000   0.083   0.000   0.000  -0.000   0.000  -0.000  -0.000   0.000  -0.000  -0.000
 -0.000   0.000  -0.057  -0.000   0.000  -0.000   0.000   0.083   0.000   0.000   0.002   0.002  -0.000  -0.000   0.000  -0.000
 -0.000   0.000   0.000  -0.012   0.000  -0.000   0.000   0.000   0.083  -0.000   0.000   0.000   0.000   0.000  -0.000  -0.000
  0.000   0.000   0.000   0.000  -0.013  -0.000  -0.000   0.000  -0.000   0.090  -0.000  -0.000  -0.000  -0.000  -0.000   0.000
 -0.000   0.000   0.005   0.000  -0.000   0.000   0.000   0.002   0.000  -0.000   1.220  -0.364   0.000  -0.000   0.000  -0.000
  0.000   0.000  -0.003   0.000  -0.000   0.000  -0.000   0.002   0.000  -0.000  -0.364   0.160  -0.000   0.000  -0.000   0.000
  0.000  -0.000   0.000  -0.000  -0.000   0.000  -0.000  -0.000   0.000  -0.000   0.000  -0.000   0.198   0.000  -0.000  -0.014
  0.000   0.000  -0.000   0.000   0.000  -0.000   0.000  -0.000   0.000  -0.000  -0.000   0.000   0.000   0.203   0.000  -0.000
  0.000  -0.000   0.000  -0.000   0.000   0.000  -0.000   0.000  -0.000  -0.000   0.000  -0.000  -0.000   0.000   0.198  -0.000
 -0.000  -0.000   0.000  -0.000  -0.000   0.000  -0.000  -0.000  -0.000   0.000  -0.000   0.000  -0.014  -0.000  -0.000   0.001
  0.000   0.000  -0.000   0.000   0.000  -0.000   0.000  -0.000  -0.000  -0.000  -0.000   0.000   0.000  -0.014   0.000  -0.000
  0.000   0.000   0.000  -0.000   0.000   0.000   0.000   0.000   0.000  -0.000  -0.000   0.000  -0.000   0.000  -0.014   0.000


------------------------ aborting loop because EDIFF is reached ----------------------------------------


    CHARGE:  cpu time    0.0024: real time    0.0024
    FORLOC:  cpu time    0.0001: real time    0.0001
    FORNL :  cpu time    0.0325: real time    0.0325
    STRESS:  cpu time    0.0983: real time    0.0983
    FORCOR:  cpu time    0.0018: real time    0.0018
    FORHAR:  cpu time    0.0005: real time    0.0005
    MIXING:  cpu time    0.0003: real time    0.0003
    OFIELD:  cpu time    0.0000: real time    0.0000

  FORCE on cell =-STRESS in cart. coord.  units (eV):
  Direction    XX          YY          ZZ          XY          YZ          ZX
  --------------------------------------------------------------------------------------
  Alpha Z   219.07151   219.07151   219.07151
  Ewald    -739.68068  -739.68068  -739.68068     0.00000    -0.00000     0.00000
  Hartree   200.76728   200.76729   201.32743    -0.00000     0.00001     0.00001
  E(xc)    -125.37802  -125.37802  -125.38197     0.00000    -0.00000    -0.00000
  Local     247.92821   247.92819   246.70618     0.00001    -0.00001    -0.00001
  n-local   -72.58547   -72.58550   -72.49991     0.00000     0.00001     0.00001
  augment   113.07165   113.07165   113.45537    -0.00000     0.00000    -0.00000
  Kinetic   157.40018   157.40017   157.76644     0.00001     0.00001     0.00001
  Fock        0.00000     0.00000     0.00000     0.00000     0.00000     0.00000
  -------------------------------------------------------------------------------------
  Total       0.59466     0.59461     0.76437     0.00001     0.00001     0.00001
  in kB      40.84151    40.83833    52.49755     0.00092     0.00057     0.00046
  external pressure =       44.73 kB  Pullay stress =        0.00 kB


 VOLUME and BASIS-vectors are now :
 -----------------------------------------------------------------------------
  energy-cutoff  :      500.00
  volume of cell :       23.33
      direct lattice vectors                 reciprocal lattice vectors
     2.545584412  0.000000000  0.000000000     0.392837101  0.000000000  0.000000000
     0.000000000  2.545584412  0.000000000     0.000000000  0.392837101  0.000000000
     0.000000000  0.000000000  3.600000000     0.000000000  0.000000000  0.277777778

  length of vectors
     2.545584412  2.545584412  3.600000000     0.392837101  0.392837101  0.277777778


 FORCES acting on ions
    electron-ion (+dipol)            ewald-force                    non-local-force                 convergence-correction
 -----------------------------------------------------------------------------------------------
   0.365E-05 0.530E-06 0.482E-05   0.584E-06 0.584E-06 -.200E-13   -.265E-05 -.129E-05 0.267E-05   -.462E-05 0.227E-07 -.574E-05
   -.385E-05 -.561E-07 -.647E-05   -.584E-06 -.584E-06 0.200E-13   -.781E-05 -.618E-05 -.283E-05   0.147E-04 0.367E-05 0.850E-05
 -----------------------------------------------------------------------------------------------
   -.193E-06 0.474E-06 -.165E-05   -.498E-14 -.147E-14 0.000E+00   -.105E-04 -.747E-05 -.160E-06   0.101E-04 0.369E-05 0.276E-05
 
 
 POSITION                                       TOTAL-FORCE (eV/Angst)
 -----------------------------------------------------------------------------------
      0.00000      0.00000      0.00000        -0.000003      0.000001      0.000001
      1.27279      1.27279      1.80000         0.000003     -0.000001     -0.000001
 -----------------------------------------------------------------------------------
    total drift:                               -0.000001     -0.000003      0.000001


--------------------------------------------------------------------------------------------------------



  FREE ENERGIE OF THE ION-ELECTRON SYSTEM (eV)
  ---------------------------------------------------
  free  energy   TOTEN  =        -7.32495762 eV

  energy  without entropy=       -7.32330108  energy(sigma->0) =       -7.32440544
 


--------------------------------------------------------------------------------------------------------


    POTLOK:  cpu time    0.0040: real time    0.0040


--------------------------------------------------------------------------------------------------------




--------------------------------------------------------------------------------------------------------


  
 reached required accuracy - stopping structural energy minimisation
 writing wavefunctions
     LOOP+:  cpu time    1.3463: real time    1.3470
    4ORBIT:  cpu time    0.0000: real time    0.0000

 total amount of memory used by VASP MPI-rank0    31548. kBytes
=======================================================================

   base      :      30000. kBytes
   nonlr-proj:        649. kBytes
   fftplans  :        177. kBytes
   grid      :        304. kBytes
   one-center:         31. kBytes
   wavefun   :        387. kBytes
 
  
  
 General timing and accounting informations for this job:
 ========================================================
  
                  Total CPU time used (sec):        1.790
                            User time (sec):        1.727
                          System time (sec):        0.063
                         Elapsed time (sec):        1.803
  
                   Maximum memory used (kb):       60108.
                   Average memory used (kb):           0.
  
                          Minor page faults:         7295
                          Major page faults:            0
                 Voluntary context switches:           63
