132
 energy: -293.484416519596 gnorm: 0.000379803214 xtb: 6.4.1 (a3dbbd7)
C         3.24532900000000   -1.53666600000000   -0.98552800000000
C         3.25938700000000   -0.15443600000000   -1.74724300000000
C         2.28966000000000   -0.34832500000000   -2.95458600000000
C         1.90965400000000   -2.09108700000000   -1.39864100000000
C         1.44036900000000   -1.51918300000000   -2.49163500000000
C         1.46881000000000   -3.41720200000000   -0.92013700000000
C         1.55774100000000   -3.44899400000000    0.66318600000000
C         3.54154000000000   -1.52319500000000    0.55151200000000
C         2.54678900000000   -2.44156000000000    1.40099100000000
C         3.48900800000000   -0.11327800000000    1.31279200000000
C         2.80728000000000    0.96561100000000   -0.87871900000000
C         3.50250800000000    1.15457900000000    0.42868600000000
C         2.10980500000000    2.02681600000000   -1.25456500000000
C         1.40883100000000    0.89735300000000   -3.39983600000000
C         1.56053400000000    2.26747700000000   -2.61446000000000
C        -0.02340700000000    0.56772200000000   -3.13492900000000
C         0.21945200000000   -1.94187100000000   -3.25721600000000
C        -0.58101900000000   -0.68493300000000   -3.12906200000000
C        -0.05292100000000   -3.68328200000000   -1.26532100000000
C        -0.68096600000000   -3.05677700000000   -2.57196200000000
C         0.16050100000000   -3.03953100000000    1.01884300000000
C        -0.70833900000000   -3.12094600000000   -0.05292100000000
C        -0.24182700000000   -2.41791100000000    2.17193900000000
C         1.80615900000000   -1.44334100000000    2.27524400000000
C         2.29079600000000   -0.22141500000000    2.19603600000000
C         0.70972000000000   -1.89711000000000    3.20010000000000
C         1.96501100000000    0.87640000000000    3.13751500000000
C         2.84381600000000    2.44783500000000    1.06271700000000
C         2.11981300000000    3.13549900000000   -0.23862100000000
C         1.90485900000000    2.23221100000000    2.31457000000000
C         0.68728800000000    3.73793800000000   -0.08195700000000
C         0.09101300000000    2.88456400000000   -2.56900200000000
C        -0.73781500000000    1.64015800000000   -2.63462000000000
C        -0.31265300000000    3.77213700000000   -1.34932400000000
C        -1.99278400000000    1.43390700000000   -2.12442100000000
C        -1.82333500000000   -0.89853000000000   -2.57098100000000
C        -2.15610800000000   -2.33841900000000   -2.39929300000000
C        -2.51476600000000    0.15716900000000   -2.04461700000000
C        -1.94859400000000   -2.55375000000000    0.03206700000000
C        -2.95012100000000   -2.46994400000000   -1.05387300000000
C        -1.47674700000000   -1.81119100000000    2.24099200000000
C        -2.31023800000000   -1.85113000000000    1.16043200000000
C        -0.09967800000000   -0.75896100000000    3.94908100000000
C         0.50344500000000    0.68649500000000    3.72968500000000
C        -1.67289500000000   -0.97256200000000    3.44573000000000
C         0.48592800000000    2.20767700000000    1.90686100000000
C        -0.05753700000000    2.88938200000000    0.86636900000000
C        -0.29601400000000    1.37856100000000    2.68526800000000
C        -1.78427000000000    3.40785800000000   -0.68927300000000
C        -2.80438500000000    2.44954500000000   -1.41032800000000
C        -1.38244700000000    2.71329700000000    0.54639400000000
C        -3.80659700000000    0.09680300000000   -1.30221000000000
C        -3.94043400000000   -1.25459800000000   -0.52154000000000
C        -3.64546900000000   -1.21826400000000    1.03997700000000
C        -3.84825200000000    1.49880800000000   -0.53252300000000
C        -2.55074700000000    0.25533400000000    3.00702500000000
C        -1.60972200000000    1.20083200000000    2.36292300000000
C        -2.13815500000000    1.83018400000000    1.25686000000000
C        -3.72467400000000    0.11755300000000    1.84920300000000
C        -3.55361800000000    1.45745000000000    1.00340900000000
O         4.16996200000000   -2.40120100000000   -1.61952000000000
H         5.02567600000000   -2.29481800000000   -1.17407900000000
O         2.24263000000000   -4.43313700000000   -1.49605300000000
H         3.12525900000000   -4.06953900000000   -1.68010000000000
O         0.57366600000000   -2.28266500000000   -4.56836200000000
H         0.26018300000000   -3.18781000000000   -4.72801000000000
O         4.56250300000000    0.14299800000000   -2.18327900000000
H         4.65560900000000   -0.27685500000000   -3.05600700000000
O        -0.83724400000000   -4.08430200000000   -3.50908600000000
H        -0.71700300000000   -4.91966300000000   -3.00490900000000
O        -0.24947100000000   -5.08019400000000   -1.34974100000000
H         0.54176700000000   -5.50966700000000   -0.99122300000000
O         3.08593000000000   -0.75882000000000   -4.03449300000000
H         2.49421200000000   -0.88560200000000   -4.79223500000000
O         1.82044500000000   -4.76718600000000    1.04973300000000
H         2.68761700000000   -4.77902400000000    1.49075300000000
O         1.63237800000000    1.13012600000000   -4.75834000000000
H         2.30692100000000    1.83041200000000   -4.81239300000000
O         2.41241500000000    3.11843300000000   -3.31746800000000
H         1.82386200000000    3.72097500000000   -3.81699900000000
O         4.59868800000000   -0.02627800000000    2.18510400000000
H         5.26474800000000    0.51155900000000    1.70890900000000
O         4.86240700000000    1.46182300000000    0.17579400000000
H         5.09677600000000    1.11019900000000   -0.70047100000000
O         1.23904500000000   -2.83838400000000    4.09654300000000
H         0.79072300000000   -2.69229600000000    4.94699700000000
O        -0.06187900000000   -1.05492100000000    5.30609900000000
H        -0.04328500000000   -0.19486200000000    5.77040900000000
O         0.44150700000000    1.36323300000000    4.96486000000000
H         1.35033500000000    1.61107300000000    5.20027800000000
O         2.87811500000000    0.92900200000000    4.19360900000000
H         3.75624300000000    0.70846900000000    3.83867500000000
O        -0.03343600000000    3.62772400000000   -3.75847500000000
H        -0.41884400000000    4.48902800000000   -3.52844000000000
O        -0.37860700000000    5.08512900000000   -1.81551800000000
H        -0.77855300000000    5.60981600000000   -1.10061000000000
O         4.84932300000000   -2.00778700000000    0.67186300000000
H         4.99394700000000   -2.23214900000000    1.60334200000000
O         3.35829200000000   -3.20720200000000    2.27498000000000
H         2.85269800000000   -3.32595800000000    3.09963300000000
O        -2.43463900000000    4.62013600000000   -0.42427800000000
H        -3.03561900000000    4.75790600000000   -1.18281500000000
O        -3.57312900000000    3.25558700000000   -2.25972800000000
H        -4.50862300000000    3.10152600000000   -2.01294600000000
O        -5.11748900000000    2.05149700000000   -0.69925800000000
H        -5.58330300000000    1.46602900000000   -1.33642100000000
O        -3.73595500000000   -3.62725200000000   -1.10576500000000
H        -3.91449800000000   -3.78039100000000   -2.05438400000000
O        -5.25670800000000   -1.67577900000000   -0.71477300000000
H        -5.27654400000000   -2.62577400000000   -0.49696600000000
O        -4.59476800000000   -2.11412300000000    1.61466600000000
H        -4.20435700000000   -2.49553100000000    2.41323100000000
O        -3.00215200000000   -2.83386800000000   -3.40494600000000
H        -2.46077100000000   -3.40406000000000   -3.98138100000000
O        -4.85507400000000    0.16258300000000   -2.25076200000000
H        -5.40031800000000   -0.63656700000000   -2.13145000000000
O         0.80926900000000    5.03748800000000    0.43474300000000
H         1.57140000000000    5.43208500000000   -0.02692900000000
O         2.93010700000000    4.19379600000000   -0.67481600000000
H         3.82120000000000    4.05124900000000   -0.31432000000000
O         3.88906900000000    3.28545400000000    1.45006500000000
H         3.66889400000000    3.63419100000000    2.33574900000000
O         2.14056200000000    3.29410400000000    3.22500400000000
H         1.54663900000000    4.02524000000000    3.00700400000000
O        -2.35189300000000   -1.69180900000000    4.42841800000000
H        -2.70477800000000   -1.03689600000000    5.05323100000000
O        -3.14766600000000    0.75548600000000    4.16918100000000
H        -3.98663500000000    1.17062800000000    3.90984500000000
O        -4.95007900000000    0.18417500000000    2.49764000000000
H        -5.43951000000000   -0.63554300000000    2.30265700000000
O        -4.38513200000000    2.38522500000000    1.66387800000000
H        -4.40107400000000    3.20735100000000    1.15986200000000
