136
 energy: -302.506886315192 gnorm: 0.000091882389 xtb: 6.4.1 (a3dbbd7)
C         3.28246200000000   -2.10884200000000   -0.56264200000000
C         2.24165800000000   -2.91261400000000    0.34164500000000
C         2.31912900000000   -2.25482100000000    1.74295400000000
C         3.66103400000000   -0.82917200000000    0.31524800000000
C         2.64477100000000   -0.82362400000000    1.39822900000000
C         3.92461300000000    0.56924100000000   -0.31119200000000
C         3.32097300000000    0.84885600000000   -1.73260800000000
C         2.82009700000000   -1.89767700000000   -2.05858900000000
C         2.77020700000000   -0.37385700000000   -2.57304000000000
C         1.36057000000000   -2.49961600000000   -2.52021700000000
C         0.83166000000000   -2.94192200000000   -0.13682000000000
C         0.55107100000000   -3.38401900000000   -1.53631100000000
C        -0.23257600000000   -3.02143200000000    0.64603600000000
C         1.07144500000000   -2.39797600000000    2.70561800000000
C        -0.23536000000000   -3.06558800000000    2.12607100000000
C         0.57809400000000   -1.02383600000000    3.01796900000000
C         2.75119000000000    0.14315800000000    2.53214900000000
C         1.33321700000000    0.12470800000000    3.00381600000000
C         3.35594700000000    1.80197300000000    0.57842800000000
C         3.01398500000000    1.63023300000000    2.09259900000000
C         2.24075400000000    1.89168000000000   -1.47855600000000
C         2.20863600000000    2.33086000000000   -0.23465700000000
C         1.37752800000000    2.37720700000000   -2.60738400000000
C         1.31961000000000   -0.13008300000000   -2.79425100000000
C         0.56386800000000   -1.27481100000000   -2.74253600000000
C         0.69993000000000    1.08534900000000   -2.91111200000000
C        -0.79629000000000   -1.18847800000000   -2.71761700000000
C        -1.07819200000000   -3.42231400000000   -1.61923900000000
C        -1.46853700000000   -3.45332200000000   -0.07091200000000
C        -1.75418900000000   -2.30014900000000   -2.49498900000000
C        -2.70717700000000   -2.62491600000000    0.35873400000000
C        -1.45289000000000   -2.25700300000000    2.73693900000000
C        -0.79945200000000   -0.93982300000000    2.97827800000000
C        -2.76990900000000   -2.12317500000000    1.88140400000000
C        -1.39776700000000    0.28466000000000    2.93868000000000
C         0.73549400000000    1.36482700000000    2.94435100000000
C         1.70542200000000    2.45858300000000    2.58689300000000
C        -0.64067200000000    1.43813500000000    2.94888900000000
C         1.47584600000000    3.56793300000000    0.15421200000000
C         0.92928800000000    3.47909000000000    1.63524100000000
C         0.19192500000000    3.34978400000000   -2.22541100000000
C         0.19249500000000    3.76793800000000   -0.72219200000000
C        -0.67175600000000    1.17829100000000   -2.87146800000000
C        -1.41831100000000    0.04353600000000   -2.76871900000000
C        -1.16868300000000    2.56578300000000   -2.71751500000000
C        -2.99371900000000   -1.48014800000000   -1.90929100000000
C        -2.86536700000000   -1.37245500000000   -0.44154900000000
C        -2.88971300000000   -0.04900200000000   -2.57089500000000
C        -3.36780500000000   -0.62753300000000    1.72799100000000
C        -2.83366200000000    0.50822900000000    2.65097800000000
C        -3.17689100000000   -0.30752000000000    0.27517800000000
C        -1.43438900000000    2.62952200000000    2.49675600000000
C        -0.50969200000000    3.06689600000000    1.41907500000000
C        -0.84205700000000    3.04643400000000    0.08999000000000
C        -2.85477100000000    2.01426300000000    2.06169100000000
C        -2.42304000000000    2.52682700000000   -1.78340500000000
C        -3.41653500000000    1.22261900000000   -1.79631700000000
C        -3.74166400000000    0.96471600000000   -0.25986300000000
C        -2.03486700000000    2.59034900000000   -0.35437700000000
C        -3.17703500000000    2.20105200000000    0.52631100000000
O         4.43729400000000   -2.90634400000000   -0.56727000000000
H         4.67086800000000   -3.05742800000000   -1.50598100000000
O         5.30226600000000    0.76467700000000   -0.43257300000000
H         5.74385800000000    0.06230600000000    0.07954000000000
O         3.67943500000000   -0.29842300000000    3.50145600000000
H         4.32518200000000    0.41197100000000    3.63768300000000
O         2.61528400000000   -4.27113100000000    0.38536500000000
H         3.59102900000000   -4.28122500000000    0.41610500000000
O         4.11201900000000    2.08947500000000    2.84030700000000
H         4.64260000000000    2.63654100000000    2.21910600000000
O         4.35890800000000    2.81538100000000    0.52037300000000
H         5.07426000000000    2.43575800000000   -0.04129700000000
O         3.43737100000000   -2.85945100000000    2.38534300000000
H         3.48095000000000   -2.48183700000000    3.27998600000000
O         4.33532900000000    1.49377900000000   -2.44988400000000
H         3.92894200000000    1.90652200000000   -3.22895500000000
O         2.30214100000000    4.69444300000000   -0.00120100000000
H         3.22175400000000    4.42684000000000    0.14637900000000
O         2.17450900000000    2.89630700000000   -3.63515000000000
H         1.71974700000000    3.69564900000000   -3.95349500000000
O         1.45719600000000   -3.06421000000000    3.87071400000000
H         1.49266000000000   -4.01182400000000    3.66757700000000
O         3.45055500000000   -0.33878600000000   -3.81624000000000
H         2.81158300000000   -0.50369300000000   -4.52208900000000
O         3.76491800000000   -2.57266600000000   -2.84173700000000
H         4.06320100000000   -1.93940800000000   -3.52923300000000
O        -0.32962000000000   -4.40861400000000    2.53414100000000
H        -0.78775800000000   -4.36123600000000    3.40315600000000
O        -1.73942400000000   -2.88952900000000    3.96121200000000
H        -2.70693900000000   -2.99847500000000    4.00747700000000
O        -3.71487900000000   -2.91178200000000    2.54570300000000
H        -4.58984900000000   -2.53669600000000    2.34161700000000
O         0.33500500000000    4.48567100000000   -3.01537400000000
H         0.01541200000000    5.23548600000000   -2.47824900000000
O        -0.15266500000000    5.14144300000000   -0.67376900000000
H         0.53540300000000    5.59972100000000   -0.16716200000000
O        -3.53799200000000    0.48795700000000    3.85692900000000
H        -4.46495500000000    0.28198700000000    3.64979800000000
O        -3.86556100000000    2.69525600000000    2.74958200000000
H        -3.45125500000000    3.13739200000000    3.50884200000000
O        -4.12887300000000    3.24045100000000    0.37942300000000
H        -4.53456700000000    3.36858300000000    1.25707200000000
O        -5.13604600000000    0.87969100000000   -0.08210000000000
H        -5.53272300000000    1.28126300000000   -0.88130300000000
O        -4.61677700000000    1.63017400000000   -2.37765100000000
H        -4.64787700000000    1.22987300000000   -3.26582500000000
O        -3.56244200000000   -0.07237400000000   -3.80794300000000
H        -3.47749100000000   -0.96685000000000   -4.16943200000000
O        -1.47466600000000   -4.62163300000000   -2.20302600000000
H        -0.82476400000000   -5.29929100000000   -1.95443700000000
O        -1.73904700000000   -4.80675600000000    0.25017300000000
H        -1.31275400000000   -5.00598100000000    1.10501100000000
O         0.97803900000000   -4.72502600000000   -1.69863200000000
H         1.64002400000000   -4.90980000000000   -1.00321800000000
O         1.54225600000000   -3.17410900000000   -3.72807500000000
H         1.63920000000000   -4.11790900000000   -3.52238800000000
O        -3.84854800000000   -3.41338400000000    0.10299500000000
H        -3.56296100000000   -4.34328500000000    0.19461500000000
O        -2.15133800000000   -2.80924100000000   -3.74127200000000
H        -2.20815200000000   -3.77480600000000   -3.65610500000000
O        -4.21123800000000   -2.06012400000000   -2.26653900000000
H        -4.41516900000000   -2.75481000000000   -1.61752500000000
O        -4.75990800000000   -0.74629700000000    1.97904700000000
H        -5.22954400000000   -0.20207600000000    1.31849600000000
O         0.93783200000000    4.76052200000000    2.21291500000000
H         1.49922800000000    4.71010300000000    3.01041300000000
O        -1.52696000000000    3.07578400000000   -3.96104300000000
H        -2.18776700000000    3.76897500000000   -3.80804300000000
O         2.07573300000000    3.19000500000000    3.72881300000000
H         3.00616500000000    2.96833900000000    3.92462100000000
O        -1.64712600000000    3.61751600000000    3.47457000000000
H        -0.96897900000000    4.29974300000000    3.37130100000000
O         4.89880600000000   -1.12005200000000    0.97151900000000
H         4.77232900000000   -1.94550600000000    1.47906800000000
O        -3.17991800000000    3.65279400000000   -2.14763700000000
H        -3.86555800000000    3.78188100000000   -1.47290700000000
