144
 energy: -320.803356567294 gnorm: 0.000245600492 xtb: 6.4.1 (a3dbbd7)
C        -2.97716400000000   -1.96091100000000   -1.50385500000000
C        -1.86627200000000   -1.97407500000000   -2.70169600000000
C        -1.68837000000000   -0.47868000000000   -3.08575200000000
C        -3.41556800000000   -0.45534400000000   -1.39830700000000
C        -2.30522200000000    0.32175400000000   -2.00148200000000
C        -3.95440100000000    0.09595200000000   -0.05418800000000
C        -3.51221700000000   -0.64619200000000    1.26354700000000
C        -2.52594400000000   -2.67844300000000   -0.19926200000000
C        -3.05245600000000   -2.15409300000000    1.18172400000000
C        -1.04986100000000   -2.82357100000000    0.01998400000000
C        -0.51028500000000   -2.71427000000000   -2.40250300000000
C        -0.18207100000000   -2.86383400000000   -0.95864900000000
C         0.84549800000000   -2.11707100000000   -2.95317500000000
C        -0.29883000000000    0.04258200000000   -3.09069900000000
C         0.82261600000000   -0.63637600000000   -2.94026100000000
C        -0.09533700000000    1.48349300000000   -3.43193300000000
C        -2.43988300000000    1.77717000000000   -2.24298600000000
C        -1.06431200000000    2.43534700000000   -2.67962600000000
C        -3.51787100000000    1.62740100000000    0.20595900000000
C        -2.83148800000000    2.49754800000000   -0.91413000000000
C        -2.54558000000000    0.31243400000000    1.89473000000000
C        -2.56448200000000    1.52321700000000    1.37430700000000
C        -1.92355900000000   -0.09391400000000    3.18123500000000
C        -1.86198100000000   -2.51846400000000    2.22042900000000
C        -0.81059800000000   -3.35106500000000    1.40297100000000
C        -1.17401100000000   -1.33892700000000    2.80463500000000
C         0.70696100000000   -3.38695300000000    1.83838200000000
C         1.20655900000000   -3.38575700000000   -0.81698300000000
C         1.98975600000000   -2.66946200000000   -2.01630700000000
C         1.73525900000000   -3.23400000000000    0.61578400000000
C         3.04898900000000   -1.59666700000000   -1.54294100000000
C         2.04089600000000    0.20977300000000   -3.20503000000000
C         1.44973800000000    1.67642000000000   -3.12953700000000
C         3.25377600000000   -0.18997300000000   -2.28546900000000
C         1.65350700000000    2.26645000000000   -1.78789200000000
C        -0.55759000000000    2.93393800000000   -1.35781200000000
C        -1.48194700000000    2.99637900000000   -0.41835800000000
C         0.83459200000000    3.43795200000000   -1.30867900000000
C        -1.92455400000000    2.71125000000000    2.02340500000000
C        -1.24048000000000    3.62261900000000    0.91214800000000
C        -0.84689300000000    0.90152400000000    3.74957400000000
C        -0.76222000000000    2.28875300000000    2.99485700000000
C         0.11862200000000   -1.24518100000000    3.05544000000000
C         1.16998200000000   -2.28123000000000    2.87578600000000
C         0.48364500000000    0.03973600000000    3.75989000000000
C         2.35459400000000   -1.89887800000000    0.84072600000000
C         2.90464900000000   -1.17573400000000   -0.10431800000000
C         2.52249500000000   -1.68906900000000    2.30218600000000
C         3.60187600000000    0.84280600000000   -1.12809600000000
C         2.54673700000000    1.86517800000000   -0.90634800000000
C         3.81883100000000   -0.01764600000000    0.16759600000000
C         1.38340600000000    3.77467600000000    0.12164400000000
C         0.30667900000000    3.68254100000000    1.27769700000000
C         0.42585700000000    2.46510300000000    2.11384100000000
C         2.66444200000000    2.80544900000000    0.26033700000000
C         1.59706700000000    0.54020200000000    2.92554000000000
C         2.85936800000000   -0.21654800000000    2.68855900000000
C         3.63048300000000    0.67274300000000    1.56101000000000
C         1.51317200000000    1.66862100000000    2.16498700000000
C         2.82656100000000    2.04042800000000    1.58068400000000
O        -4.08382400000000   -2.70382100000000   -1.92401200000000
H        -4.60950400000000   -2.14479300000000   -2.51682000000000
O        -5.35308500000000    0.07035400000000   -0.14279600000000
H        -5.68094900000000   -0.40355800000000    0.64255400000000
O        -3.42127300000000    2.02038600000000   -3.23977600000000
H        -3.61040000000000    2.97390900000000   -3.19551400000000
O        -2.45025700000000   -2.65640300000000   -3.77367400000000
H        -2.60719500000000   -1.99593800000000   -4.47458800000000
O        -3.65077700000000    3.57773000000000   -1.25971000000000
H        -4.25700100000000    3.71790400000000   -0.50868300000000
O        -4.65768100000000    2.33063300000000    0.62800900000000
H        -5.42118800000000    1.74561200000000    0.43571300000000
O        -2.27287300000000   -0.26494800000000   -4.36976200000000
H        -2.81014300000000    0.54242000000000   -4.33563200000000
O        -4.66660700000000   -0.62772900000000    2.09088700000000
H        -4.36391600000000   -0.61758900000000    3.01723200000000
O        -4.16186200000000   -2.93952400000000    1.49997300000000
H        -4.15651100000000   -3.07598100000000    2.46319500000000
O        -2.93804900000000   -4.03247800000000   -0.32362000000000
H        -3.82188600000000   -4.02660400000000   -0.72885500000000
O         1.04604200000000   -2.50059300000000   -4.27993100000000
H         1.63217600000000   -3.27795900000000   -4.26129200000000
O        -0.60252600000000   -4.03110400000000   -2.90721900000000
H        -1.32185900000000   -4.01614400000000   -3.56628300000000
O         4.37290500000000   -0.32148600000000   -3.11725000000000
H         5.00819700000000    0.36935500000000   -2.85960600000000
O         2.40693200000000    0.03905200000000   -4.55565500000000
H         3.29311500000000   -0.36895900000000   -4.55932100000000
O        -1.29914000000000    3.57266600000000   -3.47854600000000
H        -1.23706100000000    3.28193000000000   -4.40463100000000
O        -0.33481800000000    1.68772000000000   -4.80970700000000
H         0.06037400000000    0.95278300000000   -5.29615700000000
O         2.04859800000000    2.50996300000000   -4.07111400000000
H         2.32066300000000    1.93662300000000   -4.81069400000000
O         4.79530300000000    1.49976400000000   -1.49065700000000
H         4.82862100000000    2.34543400000000   -1.01220000000000
O        -2.93669400000000   -0.33847800000000    4.12719600000000
H        -2.67721600000000    0.16033100000000    4.92755600000000
O        -2.88173900000000    3.43824600000000    2.73495800000000
H        -3.04232900000000    4.25722100000000    2.22794900000000
O        -1.21422000000000    1.18507000000000    5.07175000000000
H        -0.48220300000000    0.88247800000000    5.63922700000000
O        -0.65505400000000    3.30731300000000    3.97103900000000
H        -1.53932500000000    3.41951100000000    4.35835300000000
O         3.83305800000000    3.58187600000000    0.08090700000000
H         3.51486600000000    4.51314300000000    0.05493400000000
O         1.87521700000000    5.08204400000000    0.11322500000000
H         1.58627400000000    5.48971300000000   -0.72521800000000
O         0.96823300000000    4.58082600000000   -2.11956600000000
H         0.33505200000000    4.50535900000000   -2.85404100000000
O        -1.79469300000000    4.90394800000000    0.95048400000000
H        -1.11061200000000    5.47362300000000    1.36417700000000
O         3.42458000000000    2.88577000000000    2.52807100000000
H         4.12870500000000    3.37241600000000    2.06742500000000
O         5.13341200000000   -0.53950500000000    0.10956600000000
H         5.66259100000000   -0.03606200000000    0.75539100000000
O         4.91959900000000    0.93899200000000    2.03713400000000
H         4.85903000000000    0.89236500000000    3.01204800000000
O         3.59805800000000   -2.47301700000000    2.76566200000000
H         3.59072800000000   -3.31286100000000    2.27391800000000
O         3.65088300000000   -0.22748900000000    3.84643700000000
H         4.05404100000000   -1.11196300000000    3.90617600000000
O         0.85577900000000   -0.18696700000000    5.09788600000000
H         1.33329300000000   -1.02987400000000    5.14285700000000
O         1.19140500000000   -4.77637100000000   -1.04517700000000
H         0.70600500000000   -4.93076000000000   -1.87374200000000
O         2.77105100000000   -4.17316600000000    0.81456500000000
H         2.54335900000000   -4.95316300000000    0.28171600000000
O         0.97232300000000   -4.60721700000000    2.46809400000000
H         0.36436400000000   -5.26591000000000    2.09353400000000
O        -1.23077100000000   -4.70577100000000    1.46385400000000
H        -1.93841900000000   -4.81724300000000    0.79273600000000
O        -4.47582200000000   -0.35412200000000   -2.36078100000000
H        -4.67281900000000    0.58157800000000   -2.51633200000000
O        -2.39462400000000   -3.28538200000000    3.26317500000000
H        -2.20746400000000   -4.21781600000000    3.04099700000000
O         1.40615400000000   -2.82471200000000    4.14964100000000
H         1.50664800000000   -3.78546700000000    4.03643000000000
O         2.63507700000000   -3.66410000000000   -2.75498200000000
H         3.57602300000000   -3.63981700000000   -2.51177300000000
O         4.27005500000000   -2.30096300000000   -1.62710500000000
H         4.95015100000000   -1.79377500000000   -1.15081900000000
O         0.47414500000000    4.84862500000000    2.05836700000000
H         0.32341300000000    4.60079700000000    2.98944600000000
