152
 energy: -338.999744037200 gnorm: 0.000341925917 xtb: 6.4.1 (a3dbbd7)
C        -3.77445600000000    0.19777700000000    1.00545400000000
C        -3.81211100000000    0.32346100000000   -0.60474100000000
C        -3.12843300000000    1.70916600000000   -0.94601100000000
C        -3.01283700000000    1.50905000000000    1.45292700000000
C        -2.26472000000000    1.98480200000000    0.23547800000000
C        -2.25476500000000    1.51534500000000    2.79856600000000
C        -1.72343200000000    0.14680000000000    3.38421400000000
C        -3.35861300000000   -1.21047200000000    1.62123600000000
C        -2.38351700000000   -1.18532400000000    2.93301300000000
C        -2.70903700000000   -2.27941600000000    0.66976300000000
C        -3.20715000000000   -0.81486200000000   -1.48532800000000
C        -2.97812600000000   -2.21965300000000   -0.85806900000000
C        -1.92918600000000   -0.51054800000000   -2.19363900000000
C        -2.41043400000000    1.98072300000000   -2.32716400000000
C        -1.93486100000000    0.67541200000000   -3.08180600000000
C        -1.10044200000000    2.89084400000000   -2.23311200000000
C        -1.65280800000000    3.34034500000000    0.31142200000000
C        -0.81360700000000    3.76032000000000   -0.96761200000000
C        -0.94884900000000    2.43484700000000    2.72806700000000
C        -0.67417200000000    3.39385300000000    1.51707300000000
C        -0.24194300000000    0.20588000000000    3.14246100000000
C         0.16174300000000    1.42408700000000    2.85878200000000
C         0.68953900000000   -0.81608400000000    3.68324200000000
C        -1.26164500000000   -2.29152300000000    2.63808000000000
C        -1.29147100000000   -2.35795800000000    1.13782400000000
C         0.20090200000000   -2.24002800000000    3.24080100000000
C        -0.36234900000000   -2.91061700000000    0.39624000000000
C        -1.79678100000000   -2.89829700000000   -1.75894900000000
C        -1.45959400000000   -1.80045400000000   -2.82153700000000
C        -0.59900000000000   -3.48079900000000   -0.95603900000000
C        -0.03308100000000   -1.78087400000000   -3.45431900000000
C        -0.48947800000000    0.93304000000000   -3.57147300000000
C        -0.00275800000000    1.91985200000000   -2.54373000000000
C         0.47997600000000   -0.29524500000000   -3.71813300000000
C         1.24754800000000    2.04193600000000   -2.15749200000000
C         0.72056800000000    3.77827100000000   -0.46945300000000
C         0.63678500000000    3.08143600000000    0.84197600000000
C         1.81078000000000    3.15358000000000   -1.36857600000000
C         1.56470800000000    1.88505700000000    2.76075700000000
C         1.63883000000000    2.41339800000000    1.36380200000000
C         2.14457800000000   -0.63630200000000    3.10728400000000
C         2.68807100000000    0.81025100000000    2.86457200000000
C         1.33112500000000   -2.74335200000000    2.22012400000000
C         0.89527400000000   -3.48432600000000    0.94633200000000
C         2.07552800000000   -1.49587500000000    1.90072300000000
C         0.83226700000000   -3.52140100000000   -1.58887800000000
C         1.16322200000000   -2.44322000000000   -2.65403600000000
C         1.86187200000000   -3.49410700000000   -0.32026700000000
C         1.63198400000000   -0.16101600000000   -2.77112300000000
C         2.32538800000000    1.13654000000000   -2.65653400000000
C         1.96061200000000   -1.27381100000000   -2.16001100000000
C         3.14203000000000    2.51671400000000   -0.70556000000000
C         3.02405300000000    2.30974900000000    0.84029900000000
C         3.61377000000000    1.03216800000000    1.52674500000000
C         3.51270500000000    1.25327100000000   -1.63099900000000
C         2.77129500000000   -1.32110800000000    0.80804000000000
C         2.99005300000000   -2.37669600000000   -0.24174200000000
C         3.25519600000000   -1.46723200000000   -1.47402100000000
C         3.80189900000000   -0.24217400000000    0.64977800000000
C         3.95640200000000   -0.11759300000000   -0.92090900000000
O        -5.08958000000000    0.39996600000000    1.46911600000000
H        -5.66301800000000    0.41891200000000    0.67151500000000
O        -3.08663300000000    2.01794900000000    3.80385500000000
H        -3.79837300000000    2.52378500000000    3.37313600000000
O        -2.68828000000000    4.28156100000000    0.47765500000000
H        -2.26578100000000    5.12222500000000    0.71550600000000
O        -5.18016500000000    0.38900800000000   -0.92690600000000
H        -5.33481100000000    1.18266700000000   -1.46107200000000
O        -0.63687400000000    4.74003000000000    1.94537600000000
H        -0.69668300000000    4.71915700000000    2.91866200000000
O        -0.93382600000000    3.23711000000000    3.89565300000000
H        -1.68902800000000    2.91932800000000    4.43791800000000
O        -4.23266900000000    2.62921400000000   -0.92871000000000
H        -3.89069000000000    3.52006400000000   -1.10891800000000
O        -1.82102600000000    0.26549500000000    4.77929500000000
H        -2.55069300000000   -0.29879200000000    5.08084300000000
O         1.82478200000000    2.90896300000000    3.70438700000000
H         0.98299300000000    3.15624200000000    4.11937900000000
O         0.73296500000000   -0.67946600000000    5.07042600000000
H         0.50066500000000   -1.54637200000000    5.44679800000000
O        -3.32083300000000    2.65421400000000   -3.14042900000000
H        -3.69117400000000    1.99708400000000   -3.76037700000000
O        -3.15236200000000   -1.61084400000000    4.01824500000000
H        -3.88476800000000   -2.14656500000000    3.65830400000000
O        -4.54752700000000   -1.83623500000000    2.03581700000000
H        -5.20177000000000   -1.11852500000000    2.17382200000000
O        -2.77601000000000    0.48428000000000   -4.20430600000000
H        -2.28674700000000    0.84247700000000   -4.97150900000000
O        -0.59499200000000    1.57902500000000   -4.82632900000000
H         0.01882700000000    1.08664900000000   -5.42021000000000
O         0.99889800000000   -0.27138200000000   -5.03562600000000
H         1.85922000000000    0.18379700000000   -5.00170000000000
O         3.02470100000000   -1.30570200000000    3.98521400000000
H         3.36519900000000   -0.63134100000000    4.59796300000000
O         3.49666500000000    1.10596200000000    3.96525900000000
H         3.22352200000000    1.98596400000000    4.28575100000000
O         2.72595700000000    1.53012400000000   -3.95218300000000
H         3.05467800000000    2.43944900000000   -3.89578900000000
O         4.61985100000000    1.63803800000000   -2.41077300000000
H         4.91441000000000    2.50783800000000   -2.06880000000000
O         5.32026200000000   -0.29975300000000   -1.17418100000000
H         5.56857600000000    0.35868200000000   -1.85606000000000
O         4.11553300000000   -2.08996700000000   -2.39235000000000
H         5.01976000000000   -1.89655700000000   -2.07328200000000
O         4.21407000000000   -3.02329800000000    0.05443600000000
H         4.01571900000000   -3.97828000000000    0.11831900000000
O         2.53434200000000   -4.71792300000000   -0.32693400000000
H         2.21805300000000   -5.20259700000000   -1.12156100000000
O        -2.32944000000000   -4.01473600000000   -2.40258400000000
H        -2.88516200000000   -3.70429800000000   -3.13502500000000
O        -2.35877400000000   -2.05201900000000   -3.91274900000000
H        -1.80795700000000   -2.33928600000000   -4.66847500000000
O        -4.15480800000000   -2.95947800000000   -1.05736600000000
H        -4.69813400000000   -2.44896300000000   -1.69222300000000
O        -3.20692200000000   -3.56506300000000    1.04686900000000
H        -4.06815300000000   -3.67649600000000    0.60491200000000
O        -0.14431500000000   -2.43770900000000   -4.68211100000000
H         0.71053700000000   -2.88012500000000   -4.84380000000000
O         1.95907400000000   -3.06143300000000   -3.65118600000000
H         2.88753700000000   -3.04474000000000   -3.36072700000000
O         0.25619200000000   -3.03271300000000    4.38675800000000
H        -0.40658300000000   -3.73538800000000    4.28017800000000
O         0.99148000000000   -4.75058900000000   -2.23921100000000
H         0.25768200000000   -5.31978200000000   -1.93621800000000
O         0.61942800000000   -4.81315400000000    1.30189600000000
H         1.31315800000000   -5.07433500000000    1.92841400000000
O         4.16614900000000    3.44894000000000   -0.91443300000000
H         4.26658300000000    3.92115200000000   -0.05742800000000
O         3.65557800000000    3.43967200000000    1.43910400000000
H         4.37875600000000    3.09451800000000    1.99588600000000
O         1.11890800000000    5.11347100000000   -0.27767400000000
H         0.55786600000000    5.49627000000000    0.41325900000000
O        -4.00821400000000    2.50081700000000    1.67740600000000
H        -4.44229800000000    2.72119100000000    0.83125600000000
O         2.18625000000000   -3.63442200000000    2.89289200000000
H         2.61115500000000   -3.14031700000000    3.61407400000000
O        -1.17954000000000    5.08257000000000   -1.22278700000000
H        -1.07083800000000    5.23914600000000   -2.17324700000000
O        -1.74803100000000   -3.51726700000000    3.14633200000000
H        -2.45372500000000   -3.83850800000000    2.55866700000000
O        -1.13756700000000    3.81857600000000   -3.29793100000000
H        -1.08590100000000    3.33148400000000   -4.13446000000000
O         2.23558300000000    4.10043200000000   -2.31980800000000
H         2.25769600000000    4.95719200000000   -1.86539300000000
O        -0.91176100000000   -4.84533600000000   -0.72709000000000
H        -1.71522600000000   -4.89414100000000   -0.19220500000000
O         4.88160700000000    1.43425600000000    1.96830700000000
H         5.39970200000000    0.62652300000000    2.12242100000000
O         4.99885500000000   -0.79596900000000    1.16571000000000
H         5.08679900000000   -1.70388300000000    0.82371000000000
O        -4.21304800000000   -0.96376500000000   -2.49444700000000
H        -3.78729000000000   -1.22974500000000   -3.33031700000000
