152
 energy: -338.971530081689 gnorm: 0.000229332834 xtb: 6.4.1 (a3dbbd7)
C         3.16269700000000    2.09200700000000   -0.68175500000000
C         3.58672300000000    0.59475700000000   -1.03209400000000
C         3.80802300000000   -0.11517100000000    0.34057300000000
C         2.78976100000000    1.98232000000000    0.83884900000000
C         2.68298000000000    0.48119800000000    1.20121600000000
C         1.82163100000000    3.04945300000000    1.40463600000000
C         0.69261000000000    3.59184100000000    0.47726100000000
C         2.14707700000000    2.79881500000000   -1.69429100000000
C         0.91740300000000    3.64092900000000   -1.06200400000000
C         1.45460400000000    1.91442300000000   -2.81636900000000
C         2.53791200000000   -0.11896000000000   -1.78780200000000
C         2.04901400000000    0.52121500000000   -3.03913600000000
C         2.71009700000000   -1.57833100000000   -2.07571900000000
C         3.48444800000000   -1.61583100000000    0.44758800000000
C         3.02197500000000   -2.46598400000000   -0.82302300000000
C         2.24707700000000   -1.54081000000000    1.34631800000000
C         2.64302100000000    0.33684800000000    2.71404600000000
C         2.28809600000000   -1.16793800000000    2.81594100000000
C         1.07666100000000    2.57196500000000    2.75014700000000
C         1.42298800000000    1.13563300000000    3.29444200000000
C        -0.51555500000000    2.85679700000000    0.95554600000000
C        -0.48250800000000    2.78159500000000    2.44204000000000
C        -1.60484100000000    2.65909800000000    0.25941500000000
C        -0.38701900000000    3.19549000000000   -1.87794000000000
C         0.01720800000000    1.89142800000000   -2.45117300000000
C        -1.74365200000000    3.09609300000000   -1.15384300000000
C        -0.82771000000000    0.97354600000000   -2.84935700000000
C         1.09448400000000   -0.56237800000000   -3.69675000000000
C         1.42758200000000   -1.88311800000000   -2.92174000000000
C        -0.44279600000000   -0.18256200000000   -3.72175300000000
C         0.32432600000000   -2.31998000000000   -2.04252600000000
C         1.84882000000000   -3.42319300000000   -0.27350600000000
C         1.66503800000000   -2.95020000000000    1.20589100000000
C         0.58149000000000   -3.50996500000000   -1.17570300000000
C         0.28834000000000   -3.24823900000000    1.81058600000000
C         0.85252600000000   -1.23524200000000    3.45595100000000
C         0.32243000000000    0.12049300000000    3.12039100000000
C        -0.09264000000000   -2.42984300000000    3.10122100000000
C        -1.50919900000000    1.76050100000000    2.96655000000000
C        -0.94941300000000    0.38984600000000    2.96473400000000
C        -2.94455300000000    2.26534800000000    0.78729100000000
C        -2.91409900000000    1.60201900000000    2.20917500000000
C        -2.86311100000000    2.10736500000000   -1.72993200000000
C        -2.32674500000000    1.09633200000000   -2.80449700000000
C        -3.51071400000000    1.45909700000000   -0.43427600000000
C        -1.50810500000000   -1.23279200000000   -3.28445100000000
C        -0.96796500000000   -2.07795800000000   -2.19965400000000
C        -2.78718600000000   -0.42319100000000   -2.81317500000000
C        -0.80364600000000   -3.67901900000000   -0.45662000000000
C        -0.79731900000000   -2.97111600000000    0.83415100000000
C        -1.84429400000000   -3.03016900000000   -1.43626400000000
C        -1.62554600000000   -2.02019600000000    2.80299100000000
C        -2.04675200000000   -0.59022700000000    3.14926500000000
C        -3.25322500000000    0.01903700000000    2.32582800000000
C        -1.80813500000000   -2.30108000000000    1.34452800000000
C        -3.15021900000000    0.03193600000000   -0.29075700000000
C        -3.42135300000000   -0.89425200000000   -1.44688600000000
C        -3.13125200000000   -2.34250000000000   -0.84408900000000
C        -3.62871000000000   -0.64799900000000    0.95312000000000
C        -3.13846800000000   -2.11873500000000    0.72089800000000
O         4.35967400000000    2.82885700000000   -0.72372300000000
H         4.26213200000000    3.44561800000000   -1.48466900000000
O         2.58501300000000    4.19613300000000    1.70947300000000
H         3.52710500000000    3.93142200000000    1.66936900000000
O         3.81925100000000    0.64662900000000    3.41893500000000
H         4.18960100000000   -0.19809400000000    3.73615500000000
O         4.78650000000000    0.59236300000000   -1.75522200000000
H         5.21950600000000    1.44993300000000   -1.57951100000000
O         1.64427700000000    1.23374200000000    4.68946800000000
H         1.62901500000000    2.18182300000000    4.91606500000000
O         1.43428500000000    3.46853900000000    3.76332100000000
H         1.89564200000000    4.21529100000000    3.32928700000000
O         5.12705300000000    0.07281200000000    0.77916900000000
H         5.31847800000000    1.02424900000000    0.75983000000000
O         0.42265000000000    4.91794800000000    0.91284800000000
H         0.97447700000000    5.52463200000000    0.39429500000000
O         1.15630600000000    4.98399700000000   -1.39700200000000
H         0.56203300000000    5.14405300000000   -2.17589600000000
O         2.94743900000000    3.70962600000000   -2.40727800000000
H         2.53464000000000    4.59295200000000   -2.29992500000000
O         4.55870500000000   -2.31476700000000    1.02158000000000
H         5.26669500000000   -1.66569000000000    1.17446200000000
O         4.08366500000000   -3.29600000000000   -1.19265100000000
H         4.63769600000000   -3.40151000000000   -0.39396100000000
O         2.33198900000000   -4.74088200000000   -0.26076000000000
H         2.78473100000000   -4.87412000000000    0.59024100000000
O         0.74321500000000   -4.59586600000000   -2.07112800000000
H         1.31050500000000   -5.24538700000000   -1.61592400000000
O        -1.09435100000000   -5.03112900000000   -0.23749700000000
H        -1.39479100000000   -5.36754100000000   -1.10346400000000
O        -4.03995800000000   -3.04045100000000    1.28246400000000
H        -3.78398400000000   -3.17519800000000    2.21418000000000
O        -4.90717600000000    1.58877300000000   -0.47465800000000
H        -5.10084000000000    2.33340600000000   -1.07110200000000
O        -3.76085700000000   -0.56789500000000   -3.80937500000000
H        -3.52664100000000   -1.38439200000000   -4.29935600000000
O        -2.23435200000000   -4.05269300000000   -2.31696400000000
H        -3.21128100000000   -4.07985100000000   -2.29442100000000
O        -4.21365500000000   -3.16529200000000   -1.18160700000000
H        -4.63417700000000   -3.44011100000000   -0.34719000000000
O        -3.86311200000000    2.89996200000000   -2.30263300000000
H        -3.80052800000000    2.79395500000000   -3.26714000000000
O        -2.71461600000000    1.67690200000000   -4.03485700000000
H        -2.18962200000000    1.26954200000000   -4.74479700000000
O        -1.85706300000000   -2.05834400000000   -4.36635500000000
H        -1.54970600000000   -1.59638600000000   -5.16980200000000
O         1.68339900000000   -2.88261100000000   -3.87689600000000
H         1.42922900000000   -3.74129700000000   -3.48366800000000
O         1.49182700000000   -0.71171800000000   -5.03200500000000
H         1.78011800000000   -1.63780800000000   -5.13646900000000
O         3.14176500000000    0.75915300000000   -3.90223300000000
H         3.71970600000000   -0.02374800000000   -3.87452200000000
O        -5.04975600000000   -0.66950400000000    0.95949000000000
H        -5.36785600000000   -0.63764100000000    0.03899700000000
O        -2.46103700000000   -2.91894500000000    3.49215400000000
H        -2.51411400000000   -2.59191400000000    4.40576900000000
O        -0.06602400000000   -3.26964900000000    4.20547800000000
H        -0.18138100000000   -4.17857700000000    3.87767000000000
O         0.24970600000000   -4.62087000000000    2.15065600000000
H        -0.14809600000000   -5.11267500000000    1.41365800000000
O         3.18793100000000   -1.86345400000000    3.63902400000000
H         2.70069500000000   -1.96189300000000    4.49559600000000
O        -4.35988800000000   -0.10154400000000    3.17678500000000
H        -5.12284200000000   -0.33654000000000    2.61226600000000
O        -1.78799400000000    2.05645400000000    4.31743500000000
H        -1.86166200000000    3.02291500000000    4.37488700000000
O        -0.54137700000000    4.12566900000000   -2.93026300000000
H        -1.39946300000000    4.56503500000000   -2.78540100000000
O        -3.86849400000000    2.28100100000000    2.97232600000000
H        -4.38997200000000    1.58517400000000    3.43321800000000
O        -2.25489100000000    4.41061100000000   -1.17883400000000
H        -3.01863500000000    4.43819200000000   -0.57602100000000
O         4.04186200000000    2.30148500000000    1.47475900000000
H         4.08671900000000    1.90302600000000    2.37020300000000
O         1.49757700000000    2.61454300000000   -4.02848900000000
H         2.34639400000000    2.39223400000000   -4.44647400000000
O        -0.89807000000000    4.00444500000000    2.99852700000000
H        -0.50824900000000    4.72282900000000    2.47376500000000
O        -3.69563300000000    3.46245200000000    0.85498600000000
H        -4.15748600000000    3.44683800000000    1.71452500000000
O        -0.77387800000000    0.14745100000000   -5.06451500000000
H         0.07397100000000    0.16730500000000   -5.55439500000000
O         1.06992400000000   -1.32087000000000    4.84877200000000
H         1.17470000000000   -0.41559200000000    5.19624000000000
O        -2.37940600000000   -0.61791700000000    4.51718500000000
H        -2.40350700000000    0.29617900000000    4.84365300000000
O         2.59994800000000   -3.75168500000000    1.91175600000000
H         2.90225000000000   -3.31507100000000    2.72876400000000
O         3.79683800000000   -1.67212000000000   -2.98256900000000
H         4.37884100000000   -2.38358500000000   -2.65593000000000
O        -4.82594600000000   -0.84300300000000   -1.63802400000000
H        -4.98801300000000   -0.70336100000000   -2.59249800000000
