124
 energy: -275.119908106407 gnorm: 0.000383967245 xtb: 6.4.1 (a3dbbd7)
C        -3.53348800000000   -0.31999100000000    0.77954000000000
C        -3.16931400000000   -1.76827100000000    0.28501200000000
C        -3.10671900000000   -1.65029200000000   -1.26999600000000
C        -3.02754700000000    0.53842200000000   -0.35045200000000
C        -2.87919000000000   -0.16597800000000   -1.45984200000000
C        -3.17688600000000    2.01851500000000   -0.32075600000000
C        -2.59011600000000    2.60901000000000    1.01148000000000
C        -3.07151700000000    0.09618400000000    2.20751700000000
C        -2.46993200000000    1.60401400000000    2.23283100000000
C        -1.94708600000000   -0.79840800000000    2.91870700000000
C        -1.87291300000000   -2.24797200000000    0.84252700000000
C        -1.64792400000000   -2.20575800000000    2.32277500000000
C        -0.99571200000000   -3.00555800000000    0.20418200000000
C        -2.05373200000000   -2.54559200000000   -2.06154100000000
C        -1.06800600000000   -3.45538100000000   -1.21366900000000
C        -1.11154300000000   -1.64440200000000   -2.80618100000000
C        -2.63245200000000    0.39444500000000   -2.82030300000000
C        -1.39676300000000   -0.37853800000000   -3.23148900000000
C        -2.38975300000000    2.72802400000000   -1.47193800000000
C        -2.16407200000000    1.91650200000000   -2.81038100000000
C        -1.21835500000000    3.11618600000000    0.54011200000000
C        -1.10734200000000    3.13277200000000   -0.77290600000000
C        -0.11932200000000    3.50843500000000    1.48650100000000
C        -1.00981800000000    1.35069500000000    2.44655500000000
C        -0.74121900000000    0.04633300000000    2.78905800000000
C         0.03598400000000    2.19971400000000    2.18917600000000
C         0.54020200000000   -0.40668200000000    2.84757600000000
C        -0.15863100000000   -2.82389500000000    2.51494900000000
C         0.12198800000000   -3.49424700000000    1.10981900000000
C         0.95741700000000   -1.82166000000000    3.03427800000000
C         1.32947500000000   -2.99503200000000    0.40774300000000
C         0.33918000000000   -3.37134200000000   -1.96492700000000
C         0.21902000000000   -2.09677600000000   -2.73080200000000
C         1.60259000000000   -3.35896100000000   -1.04036200000000
C         1.26195600000000   -1.29462200000000   -3.07306900000000
C        -0.33381900000000    0.50152200000000   -3.47636300000000
C        -0.67206500000000    1.80882600000000   -3.07758900000000
C         0.98317200000000    0.03987100000000   -3.41711400000000
C         0.06677200000000    3.66375300000000   -1.52585800000000
C         0.32355100000000    2.58696900000000   -2.55811200000000
C         1.33258000000000    3.77540800000000    0.87179300000000
C         1.42434900000000    3.74550200000000   -0.70528500000000
C         1.33544200000000    1.73914800000000    2.19758100000000
C         1.58991600000000    0.44586900000000    2.55711000000000
C         2.30885200000000    2.72001100000000    1.64056700000000
C         2.38435600000000   -1.77697400000000    2.32987300000000
C         2.24160800000000   -2.16454300000000    0.90953200000000
C         2.89020000000000   -0.25847900000000    2.45235200000000
C         2.82332400000000   -2.35998100000000   -1.41571400000000
C         2.70728400000000   -1.46423000000000   -2.68848400000000
C         2.97000400000000   -1.54409600000000   -0.15972000000000
C         2.00803100000000    0.86643000000000   -2.95166500000000
C         1.64111200000000    2.08690900000000   -2.45009800000000
C         2.22485600000000    2.57315800000000   -1.22736900000000
C         3.23797100000000    0.07891400000000   -2.56670400000000
C         3.43880200000000    1.94513100000000    0.86103900000000
C         3.70896100000000    0.37264200000000    1.26505500000000
C         3.48835400000000   -0.33263400000000   -0.04706600000000
C         3.11806300000000    1.81993400000000   -0.59756400000000
C         3.79576500000000    0.58068500000000   -1.18939700000000
O        -4.94885000000000   -0.18092100000000    0.73966300000000
H        -5.32013600000000   -1.07245600000000    0.86467100000000
O        -4.53190700000000    2.35068900000000   -0.48971500000000
H        -5.07095400000000    1.72861100000000    0.01853600000000
O        -3.76616800000000    0.20412800000000   -3.61248000000000
H        -3.79961700000000    0.96082400000000   -4.22501700000000
O        -4.19155100000000   -2.65988800000000    0.68586900000000
H        -4.66324500000000   -2.91989000000000   -0.12530400000000
O        -2.82656900000000    2.55015200000000   -3.87029700000000
H        -3.21226800000000    3.37164600000000   -3.50869500000000
O        -3.06616600000000    3.92772800000000   -1.81361500000000
H        -3.88789400000000    3.94372500000000   -1.29357800000000
O        -4.40019700000000   -1.97737800000000   -1.72231900000000
H        -4.45217300000000   -1.73761500000000   -2.65953300000000
O        -3.39783700000000    3.69683000000000    1.34353200000000
H        -3.12979300000000    4.00128300000000    2.22278300000000
O        -0.21677200000000    4.94201500000000   -2.05724300000000
H        -1.17459700000000    5.02000000000000   -2.16599500000000
O        -0.54871100000000    4.56795900000000    2.29390400000000
H         0.15556100000000    5.23482400000000    2.30522600000000
O        -2.75692800000000   -3.35534500000000   -2.95784700000000
H        -2.89256700000000   -4.21545900000000   -2.52346500000000
O        -3.04082300000000    2.27066000000000    3.32843400000000
H        -3.09244400000000    1.64085600000000    4.06211700000000
O        -4.16312700000000    0.02683700000000    3.07620900000000
H        -4.92015500000000    0.45842500000000    2.65257800000000
O        -1.51998400000000   -4.78022800000000   -1.23521100000000
H        -1.03392900000000   -5.20442800000000   -1.97554800000000
O         0.40581200000000   -4.47194800000000   -2.83657300000000
H         1.16511500000000   -5.01311200000000   -2.54309100000000
O         2.09870600000000   -4.68463200000000   -1.04344200000000
H         3.07641600000000   -4.59476700000000   -1.06506300000000
O         1.70827700000000    5.05800000000000    1.29422400000000
H         2.13474200000000    5.47787900000000    0.51216100000000
O         2.09859800000000    4.92330200000000   -1.10538900000000
H         1.48947600000000    5.42051300000000   -1.67928600000000
O         3.97790000000000   -3.15246100000000   -1.53419000000000
H         4.21661000000000   -3.12948600000000   -2.48572400000000
O         3.43567700000000   -2.09899200000000   -3.70666100000000
H         3.95473400000000   -1.39016200000000   -4.14327300000000
O         4.22356700000000    0.24493600000000   -3.55269600000000
H         5.04363500000000    0.50264500000000   -3.09424700000000
O         5.17905100000000    0.79834300000000   -1.34977000000000
H         5.53385800000000    1.05005700000000   -0.48171400000000
O         0.09906000000000   -4.88891000000000    1.27764400000000
H         0.53365500000000   -5.29668000000000    0.51701800000000
O         5.07519300000000    0.25656300000000    1.54751200000000
H         5.16312500000000    0.34461200000000    2.51400700000000
O         4.64442400000000    2.63606600000000    0.99798000000000
H         4.63691100000000    3.02773000000000    1.89003900000000
O         3.27188000000000   -2.62326900000000    2.99448600000000
H         2.82394700000000   -2.86446900000000    3.83157100000000
O         3.67058700000000   -0.14674500000000    3.61135300000000
H         3.95429500000000   -1.05523500000000    3.83146400000000
O         1.23349700000000   -2.09411000000000    4.38756700000000
H         0.52027900000000   -2.64964100000000    4.73628400000000
O         2.95760300000000    3.40458600000000    2.68514100000000
H         2.71613800000000    4.34591600000000    2.60425700000000
O        -0.21777700000000   -3.81264600000000    3.49498000000000
H        -0.70021200000000   -4.56955400000000    3.13581400000000
O        -2.53237400000000   -3.12615300000000    2.93815900000000
H        -3.33533600000000   -3.18456500000000    2.39814500000000
O        -2.25415200000000   -0.93337700000000    4.27567100000000
H        -2.74812900000000   -1.76418800000000    4.37867600000000
