144
 energy: -320.795833274747 gnorm: 0.000319608093 xtb: 6.4.1 (a3dbbd7)
C        -3.60620300000000    0.93963600000000   -1.36734900000000
C        -3.00717700000000    2.40115200000000   -0.92952200000000
C        -2.79069300000000    2.27272600000000    0.61044400000000
C        -3.78874400000000    0.16250400000000   -0.00895500000000
C        -2.86418000000000    0.83091800000000    0.94495500000000
C        -3.69220000000000   -1.39178900000000   -0.00680900000000
C        -2.89616200000000   -2.11115500000000   -1.16495500000000
C        -2.79475200000000    0.20805000000000   -2.46351600000000
C        -2.70850500000000   -1.37222100000000   -2.50990600000000
C        -1.37130800000000    0.63599700000000   -2.53543600000000
C        -1.75705800000000    2.95899500000000   -1.72331600000000
C        -0.94596100000000    1.90496900000000   -2.36738900000000
C        -0.60487600000000    3.73865300000000   -0.94502100000000
C        -1.46507900000000    2.68642300000000    1.12630400000000
C        -0.48540100000000    3.27809900000000    0.46984200000000
C        -1.20654100000000    2.52393900000000    2.59361600000000
C        -2.89899800000000    0.49204300000000    2.38847600000000
C        -1.69959300000000    1.16823800000000    3.17569800000000
C        -2.98790600000000   -1.96889000000000    1.31508200000000
C        -2.67390500000000   -1.04789100000000    2.55386700000000
C        -1.61573100000000   -2.57033200000000   -0.51999000000000
C        -1.68675300000000   -2.55199900000000    0.80007800000000
C        -0.68148400000000   -3.41964000000000   -1.31856800000000
C        -1.27290500000000   -1.63554400000000   -3.21863100000000
C        -0.60401400000000   -0.30613500000000   -3.14214400000000
C        -0.26247300000000   -2.70083200000000   -2.63473800000000
C         0.77743900000000   -0.07550800000000   -3.61299300000000
C         0.34875600000000    2.43183600000000   -2.88382200000000
C         0.75221000000000    3.38708100000000   -1.70597900000000
C         1.39836500000000    1.36079500000000   -3.40280600000000
C         1.69325500000000    2.71161800000000   -0.76172400000000
C         0.69365000000000    3.59622000000000    1.37336300000000
C         0.35627800000000    2.78467900000000    2.68314700000000
C         2.02860700000000    3.25866900000000    0.61225400000000
C         1.11093600000000    1.50617200000000    2.73344100000000
C        -0.68625900000000    0.06427800000000    3.15965400000000
C        -1.18695600000000   -1.11817700000000    2.85973500000000
C         0.67699300000000    0.38404200000000    3.63891600000000
C        -0.72906200000000   -3.27859900000000    1.69366400000000
C        -0.39264800000000   -2.37617000000000    2.95494000000000
C         0.66328300000000   -3.79467000000000   -0.56193500000000
C         0.63957600000000   -3.54057200000000    0.98526300000000
C         1.05863900000000   -2.09373500000000   -2.24541700000000
C         1.57490300000000   -0.97030000000000   -2.69535300000000
C         1.81628700000000   -3.03375600000000   -1.37134000000000
C         2.64429000000000    1.14165100000000   -2.45261600000000
C         2.45031100000000    1.67377300000000   -1.08764100000000
C         2.92751600000000   -0.40218900000000   -2.43334700000000
C         2.96110600000000    2.14514200000000    1.19651800000000
C         2.20672900000000    1.21325100000000    2.06068400000000
C         3.52888500000000    1.41085500000000   -0.07451400000000
C         1.74209300000000   -0.74810700000000    3.43865800000000
C         1.16341300000000   -2.10379800000000    2.88964700000000
C         1.44746500000000   -2.36531000000000    1.44166500000000
C         2.85580400000000   -0.06033500000000    2.51294800000000
C         2.91078200000000   -2.30503300000000   -0.55951200000000
C         3.66774100000000   -1.03321400000000   -1.18474500000000
C         3.98328400000000   -0.07981200000000    0.08951500000000
C         2.40701300000000   -1.80542000000000    0.74629700000000
C         3.40781600000000   -0.87719300000000    1.33025100000000
O        -4.88036200000000    1.14827000000000   -1.91190300000000
H        -5.09750700000000    2.09014900000000   -1.74208300000000
O        -5.01617100000000   -1.86733400000000   -0.03413500000000
H        -5.05789100000000   -2.52795000000000   -0.75385700000000
O        -4.11750300000000    0.88549000000000    2.97231200000000
H        -4.28368700000000    0.25351000000000    3.69434300000000
O        -4.03330100000000    3.33302800000000   -1.13913300000000
H        -4.35685500000000    3.56532400000000   -0.23748000000000
O        -3.42024700000000   -1.45747900000000    3.66244700000000
H        -3.72428300000000   -2.36528900000000    3.47061800000000
O        -3.77075900000000   -3.03671100000000    1.78998000000000
H        -4.62875800000000   -2.97659700000000    1.32435700000000
O        -3.79838500000000    3.03394400000000    1.27810800000000
H        -4.32948600000000    2.42239000000000    1.81778800000000
O        -3.66043500000000   -3.27852400000000   -1.41863500000000
H        -3.07641900000000   -3.95790800000000   -1.79487000000000
O        -3.70332100000000   -1.85381900000000   -3.35369300000000
H        -3.76313600000000   -1.21286000000000   -4.08669800000000
O        -3.31659600000000    0.59656400000000   -3.72009000000000
H        -4.21399800000000    0.94362300000000   -3.53644400000000
O        -0.84540600000000    5.11060500000000   -0.98671800000000
H        -0.05400500000000    5.51356500000000   -1.39792000000000
O        -2.22580700000000    3.82136400000000   -2.73978700000000
H        -2.72448700000000    4.53388900000000   -2.31154200000000
O         2.75871500000000    4.45084300000000    0.47200800000000
H         3.63365100000000    4.30213300000000    0.86422800000000
O         0.67535800000000    4.95312500000000    1.72886100000000
H         1.42559800000000    5.36700200000000    1.25807100000000
O        -2.04494000000000    1.35593700000000    4.52749100000000
H        -2.50984400000000    2.20667000000000    4.58321000000000
O        -1.89338200000000    3.52523300000000    3.31225400000000
H        -1.81521100000000    4.35773200000000    2.83127200000000
O         0.68101400000000    3.51349100000000    3.82645800000000
H         0.66524000000000    4.45313300000000    3.57250700000000
O         3.99982900000000    2.75416700000000    1.92209900000000
H         4.32558400000000    2.11227200000000    2.57343000000000
O        -1.38209900000000   -4.59736600000000   -1.64228900000000
H        -0.81826500000000   -5.34591800000000   -1.36331600000000
O        -1.27382100000000   -4.50509100000000    2.09044000000000
H        -1.57514300000000   -4.39202800000000    3.01076400000000
O         0.84151900000000   -5.17479100000000   -0.72380800000000
H         1.54356400000000   -5.28976200000000   -1.39629000000000
O         1.22631200000000   -4.66587900000000    1.61118200000000
H         0.53856700000000   -5.35338600000000    1.63967200000000
O         3.96463100000000    0.28333100000000    3.32189600000000
H         3.76786500000000   -0.12121200000000    4.19817200000000
O         2.34834000000000   -1.00858700000000    4.67024500000000
H         1.82580300000000   -0.53405000000000    5.34589200000000
O         0.64797500000000    0.73782400000000    4.99923900000000
H        -0.21037500000000    1.16245900000000    5.17899500000000
O        -0.71843100000000   -3.06497600000000    4.12683400000000
H         0.13537200000000   -3.33296700000000    4.52616700000000
O         4.44162600000000   -1.71223400000000    1.81292100000000
H         4.95195300000000   -1.17849400000000    2.44724600000000
O         4.63764900000000    2.16447500000000   -0.53358200000000
H         5.42740600000000    1.78556100000000   -0.10425500000000
O         5.37572000000000   -0.01916900000000    0.27154600000000
H         5.76834600000000   -0.66061700000000   -0.35309800000000
O         3.75286000000000    1.77796700000000   -3.03907900000000
H         4.28463000000000    2.18872200000000   -2.33259200000000
O         1.91588700000000    1.81902000000000   -4.60664700000000
H         1.51534800000000    1.29997300000000   -5.32277100000000
O         1.32396500000000    4.55962000000000   -2.20316900000000
H         1.26037600000000    4.49625500000000   -3.17873900000000
O         0.91094300000000   -0.43711900000000   -4.96731800000000
H         0.17004600000000   -1.02533900000000   -5.19350300000000
O         4.91390400000000   -1.48916200000000   -1.62756400000000
H         4.89369900000000   -1.42907800000000   -2.60811400000000
O         2.44449500000000   -3.99171700000000   -2.20835300000000
H         3.34041500000000   -4.12158200000000   -1.84590600000000
O        -1.49485400000000   -1.92745700000000   -4.57599700000000
H        -1.73675800000000   -2.86122700000000   -4.65358700000000
O        -5.07368900000000    0.53154200000000    0.47003500000000
H        -5.69231700000000   -0.18164500000000    0.24259900000000
O         1.77757600000000   -3.10589700000000    3.67003400000000
H         1.87246100000000   -3.90090200000000    3.10916200000000
O         3.87830500000000   -3.30325600000000   -0.30911600000000
H         4.43107200000000   -3.01281300000000    0.43589900000000
O        -0.05314000000000   -3.66551300000000   -3.64066100000000
H         0.84099900000000   -4.02205100000000   -3.54976800000000
O         3.70975600000000   -0.67942400000000   -3.57762500000000
H         3.94237000000000    0.18843300000000   -3.96875100000000
O         0.08907400000000    3.25378800000000   -4.00419000000000
H        -0.81374100000000    3.61144200000000   -3.90958900000000
144
 energy: -320.795833463644 gnorm: 0.000142757405 xtb: 6.4.1 (a3dbbd7)
C        -3.60635884629475    0.93963174294095   -1.36748050342218
C        -3.00704269899981    2.40099262859108   -0.92948537416035
C        -2.79070007207707    2.27274248026040    0.61051577564633
C        -3.78868727701961    0.16255297095762   -0.00903166638767
C        -2.86419764611696    0.83094103404482    0.94498426857299
C        -3.69213983665434   -1.39172789550688   -0.00685656123329
C        -2.89614231019396   -2.11116649520387   -1.16497338904288
C        -2.79483472480338    0.20804991096380   -2.46363217515840
C        -2.70849558721914   -1.37221937138324   -2.50992168434711
C        -1.37136744764845    0.63598799920461   -2.53562508371822
C        -1.75702862691582    2.95891729804478   -1.72331174469698
C        -0.94597104561635    1.90491451610237   -2.36741584001958
C        -0.60489093605702    3.73858380543752   -0.94498501240840
C        -1.46510457647629    2.68646648141199    1.12638985398421
C        -0.48541241180473    3.27809266861332    0.46990776137904
C        -1.20654711668003    2.52396093645093    2.59368772358332
C        -2.89900926395124    0.49205797125015    2.38849125744824
C        -1.69960552704047    1.16824285125461    3.17573126979367
C        -2.98790986898263   -1.96887733383836    1.31504575257452
C        -2.67391203811617   -1.04787512823960    2.55384537291228
C        -1.61571277526000   -2.57033165106775   -0.52000676343907
C        -1.68675321248714   -2.55200040237468    0.80006365222798
C        -0.68146465121125   -3.41963478447482   -1.31858713288632
C        -1.27292276257758   -1.63558692403614   -3.21871406744928
C        -0.60407844977900   -0.30614073395432   -3.14232236924755
C        -0.26246486738571   -2.70079661580021   -2.63475444614344
C         0.77743587735591   -0.07549070898648   -3.61298883816160
C         0.34879997125290    2.43179602044582   -2.88375089447150
C         0.75216506371208    3.38701843678480   -1.70590201850743
C         1.39836133553369    1.36079648085404   -3.40266703659842
C         1.69323708119917    2.71158224727697   -0.76169387767742
C         0.69362908463863    3.59627206637801    1.37339054919411
C         0.35628030362897    2.78470270420068    2.68317011581623
C         2.02856830898513    3.25869110788774    0.61228731380897
C         1.11092337602062    1.50619030448345    2.73345543198342
C        -0.68626810422766    0.06428862027937    3.15965291118655
C        -1.18696835343480   -1.11816431675483    2.85972885073857
C         0.67697873173559    0.38405747423494    3.63892008316715
C        -0.72907548065398   -3.27860003040225    1.69366335474152
C        -0.39266470123524   -2.37615715213521    2.95493860988576
C         0.66330592140044   -3.79464103663135   -0.56193107150390
C         0.63957420466122   -3.54056041037022    0.98527271347705
C         1.05862036764418   -2.09367459513873   -2.24541152075394
C         1.57485116082397   -0.97020800693675   -2.69529173082860
C         1.81627738118737   -3.03369778441168   -1.37135173911058
C         2.64435943768804    1.14167914128371   -2.45258132130156
C         2.45038338984926    1.67379395599382   -1.08758236962796
C         2.92751973067166   -0.40217409582731   -2.43344523073346
C         2.96108898149032    2.14517634166694    1.19655016553641
C         2.20672842658042    1.21327982893889    2.06071530267783
C         3.52894141017339    1.41091301823941   -0.07445560542208
C         1.74207472625066   -0.74809495704929    3.43866895668047
C         1.16339826962441   -2.10379150234130    2.88965098041111
C         1.44745893274508   -2.36529248459863    1.44166806802945
C         2.85579516398336   -0.06031485887015    2.51297196022576
C         2.91076213759002   -2.30496197090122   -0.55953311607682
C         3.66773238053661   -1.03317176291928   -1.18479751748485
C         3.98323798196519   -0.07980684205150    0.08951658471437
C         2.40699928011318   -1.80537745270481    0.74630244315552
C         3.40780880563354   -0.87717354641937    1.33027697596157
O        -4.88057478051082    1.14829890977925   -1.91194789324074
H        -5.09763925961666    2.09022114400225   -1.74221238331601
O        -5.01610791430146   -1.86725714919878   -0.03415727697540
H        -5.05781777963433   -2.52795349327078   -0.75380877846072
O        -4.11751809976281    0.88549683071507    2.97232404578982
H        -4.28365955733600    0.25358956634271    3.69442398185127
O        -4.03321648274153    3.33274566674065   -1.13921244194205
H        -4.35688056758406    3.56504221992636   -0.23759274297533
O        -3.42027470067423   -1.45745954976152    3.66241250826571
H        -3.72421942647010   -2.36530806844363    3.47063380502226
O        -3.77078140615995   -3.03668434663464    1.78994272416306
H        -4.62881926052238   -2.97649749504465    1.32440027431278
O        -3.79844057082051    3.03390425855119    1.27813916012114
H        -4.32955744194406    2.42234942761231    1.81781302715709
O        -3.66041051180068   -3.27854551646075   -1.41864224652681
H        -3.07634695502203   -3.95798722760372   -1.79471011534744
O        -3.70329466488288   -1.85388290535842   -3.35369384517917
H        -3.76325860426676   -1.21288152278439   -4.08664582553361
O        -3.31678874276666    0.59652018256220   -3.72017758973938
H        -4.21416463398450    0.94362876119579   -3.53646355079980
O        -0.84553805820425    5.11050308460150   -0.98669996151827
H        -0.05410746691033    5.51359087300256   -1.39762398789498
O        -2.22576960538279    3.82123832104390   -2.73987924289165
H        -2.72418489859834    4.53395493499307   -2.31168190401128
O         2.75867591327843    4.45083936896640    0.47200018042596
H         3.63367057473866    4.30210568556963    0.86409303216982
O         0.67535453195800    4.95319467935500    1.72882147010633
H         1.42578041666440    5.36697076571317    1.25820657145559
O        -2.04497132249072    1.35590776519224    4.52752978814223
H        -2.50985023332372    2.20665362286544    4.58326589750699
O        -1.89336909707817    3.52523900004210    3.31233654084379
H        -1.81501744563764    4.35778496678255    2.83145959279397
O         0.68105351900187    3.51353579216249    3.82645522892797
H         0.66541354578936    4.45316864038278    3.57244193083965
O         3.99979752901851    2.75423584321726    1.92212633796597
H         4.32561819371713    2.11234743361483    2.57342297239747
O        -1.38207213451287   -4.59737294524420   -1.64227943605524
H        -0.81815645445354   -5.34591710302459   -1.36344617854641
O        -1.27383338006754   -4.50508526439490    2.09046029194479
H        -1.57501380421687   -4.39204145119374    3.01083846272026
O         0.84155083415749   -5.17476238475878   -0.72379910128672
H         1.54362374818639   -5.28973980666662   -1.39624641464263
O         1.22630231734554   -4.66586524884128    1.61120636319455
H         0.53854666662098   -5.35336285759452    1.63970655815692
O         3.96460888537819    0.28333917235913    3.32193556317572
H         3.76783413011773   -0.12121098003172    4.19820371767832
O         2.34828924762585   -1.00858167774496    4.67026798371605
H         1.82574294377016   -0.53402880640520    5.34589990689645
O         0.64793916975236    0.73785587375583    4.99923604052157
H        -0.21043554951614    1.16244804646972    5.17898507726447
O        -0.71846349240194   -3.06497060398162    4.12682886778722
H         0.13533385901906   -3.33293625164116    4.52619045120962
O         4.44160204651865   -1.71223957763516    1.81295142708536
H         4.95198394639464   -1.17850659501992    2.44723477684633
O         4.63771964959085    2.16449052473303   -0.53353143621489
H         5.42749737625604    1.78542393252460   -0.10436167788413
O         5.37566663438169   -0.01918437384136    0.27152242099312
H         5.76825216166953   -0.66062859377039   -0.35316109583286
O         3.75293569407973    1.77793224450196   -3.03908176838109
H         4.28473858230973    2.18863992426211   -2.33258243224515
O         1.91583449830612    1.81900569071152   -4.60663305806064
H         1.51512517375474    1.30007075000930   -5.32250966267188
O         1.32398470772112    4.55965327195371   -2.20303457553870
H         1.26095434402849    4.49605647890889   -3.17863614118603
O         0.91120233849817   -0.43718854034267   -4.96729479226261
H         0.17006527477134   -1.02499834988157   -5.19375351879844
O         4.91386726577964   -1.48915128559280   -1.62766925786172
H         4.89364069480672   -1.42906145720743   -2.60821881650374
O         2.44448999339525   -3.99165635055994   -2.20836910691381
H         3.34041811466802   -4.12150820357907   -1.84593750710476
O        -1.49487166706418   -1.92755089860455   -4.57603578149368
H        -1.73708785006586   -2.86124366881940   -4.65357971181986
O        -5.07363249423599    0.53154789619465    0.46999493182176
H        -5.69226129989079   -0.18164816078389    0.24260067685753
O         1.77754432225697   -3.10588843608548    3.67005609088063
H         1.87243753398240   -3.90089926353409    3.10919650143429
O         3.87829046239859   -3.30318401273983   -0.30912762530763
H         4.43106367139450   -3.01275437428643    0.43588513146086
O        -0.05308191485254   -3.66546956587873   -3.64066713252358
H         0.84109406849252   -4.02193284725030   -3.54979717650264
O         3.70965697303033   -0.67951085253385   -3.57778848949055
H         3.94234122517549    0.18832304414668   -3.96890370713522
O         0.08917541977604    3.25383477947379   -4.00409291567208
H        -0.81389367762526    3.61094949594649   -3.90968836510889
