 vasp.5.4.4.18Apr17-6-g9f103f2a35 (build Jul 09 2019 11:14:26) complex          
  
 executed on             LinuxIFC date 2022.08.30  00:30:28
 running on   16 total cores
 distrk:  each k-point on   16 cores,    1 groups
 distr:  one band on NCORES_PER_BAND=   1 cores,   16 groups


--------------------------------------------------------------------------------------------------------


 INCAR:
 POTCAR:   PAW_PBE Cu 05Jan2001                   

 ----------------------------------------------------------------------------- 
|                                                                             |
|           W    W    AA    RRRRR   N    N  II  N    N   GGGG   !!!           |
|           W    W   A  A   R    R  NN   N  II  NN   N  G    G  !!!           |
|           W    W  A    A  R    R  N N  N  II  N N  N  G       !!!           |
|           W WW W  AAAAAA  RRRRR   N  N N  II  N  N N  G  GGG   !            |
|           WW  WW  A    A  R   R   N   NN  II  N   NN  G    G                |
|           W    W  A    A  R    R  N    N  II  N    N   GGGG   !!!           |
|                                                                             |
|      For optimal performance we recommend to set                            |
|        NCORE= 4 - approx SQRT( number of cores)                             |
|      NCORE specifies how many cores store one orbital (NPAR=cpu/NCORE).     |
|      This setting can  greatly improve the performance of VASP for DFT.     |
|      The default,   NCORE=1            might be grossly inefficient         |
|      on modern multi-core architectures or massively parallel machines.     |
|      Do your own testing !!!!                                               |
|      Unfortunately you need to use the default for GW and RPA calculations. |
|      (for HF NCORE is supported but not extensively tested yet)             |
|                                                                             |
 ----------------------------------------------------------------------------- 

 POTCAR:   PAW_PBE Cu 05Jan2001                   
   VRHFIN =Cu: d10 p1                                                           
   LEXCH  = PE                                                                  
   EATOM  =  1390.9800 eV,  102.2341 Ry                                         
                                                                                
   TITEL  = PAW_PBE Cu 05Jan2001                                                
   LULTRA =        F    use ultrasoft PP ?                                      
   IUNSCR =        1    unscreen: 0-lin 1-nonlin 2-no                           
   RPACOR =    2.000    partial core radius                                     
   POMASS =   63.546; ZVAL   =   11.000    mass and valenz                      
   RCORE  =    2.300    outmost cutoff radius                                   
   RWIGS  =    2.480; RWIGS  =    1.312    wigner-seitz radius (au A)           
   ENMAX  =  273.214; ENMIN  =  204.910 eV                                      
   RCLOC  =    1.712    cutoff for local pot                                    
   LCOR   =        T    correct aug charges                                     
   LPAW   =        T    paw PP                                                  
   EAUG   =  516.456                                                            
   DEXC   =    -.008                                                            
   RMAX   =    2.789    core radius for proj-oper                               
   RAUG   =    1.300    factor for augmentation sphere                          
   RDEP   =    2.302    radius for radial grids                                 
   QCUT   =   -4.481; QGAM   =    8.962    optimization parameters              
                                                                                
   Description                                                                  
     l     E      TYP  RCUT    TYP  RCUT                                        
     2   .000     23  2.300                                                     
     2   .000     23  2.300                                                     
     0   .000     23  2.300                                                     
     0   .000     23  2.300                                                     
     1  -.200     23  2.300                                                     
     1   .000     23  2.300                                                     
     3   .000      7   .000                                                     
  local pseudopotential read in
  partial core-charges read in
  atomic valenz-charges read in
  non local Contribution for L=           2  read in
    real space projection operators read in
  non local Contribution for L=           2  read in
    real space projection operators read in
  non local Contribution for L=           0  read in
    real space projection operators read in
  non local Contribution for L=           0  read in
    real space projection operators read in
  non local Contribution for L=           1  read in
    real space projection operators read in
  non local Contribution for L=           1  read in
    real space projection operators read in
    PAW grid and wavefunctions read in
 
   number of l-projection  operators is LMAX  =           6
   number of lm-projection operators is LMMAX =          18
 

 ----------------------------------------------------------------------------- 
|                                                                             |
|  ADVICE TO THIS USER RUNNING 'VASP/VAMP'   (HEAR YOUR MASTER'S VOICE ...):  |
|                                                                             |
|      You have a (more or less) 'small supercell' and for smaller cells      |
|      it is recommended  to use the reciprocal-space projection scheme!      |
|      The real space optimization is not  efficient for small cells and it   |
|      is also less accurate ...                                              |
|      Therefore set LREAL=.FALSE. in the  INCAR file                         |
|                                                                             |
 ----------------------------------------------------------------------------- 

 Optimization of the real space projectors (new method)

 maximal supplied QI-value         = 16.25
 optimisation between [QCUT,QGAM] = [ 11.38, 22.75] = [ 36.24,144.96] Ry 
 Optimized for a Real-space Cutoff    1.39 Angstroem

   l    n(q)    QCUT    max X(q) W(low)/X(q) W(high)/X(q)  e(spline) 
   2      8    11.376     4.977    0.31E-04    0.13E-04    0.34E-07
   2      8    11.376    13.467    0.33E-03    0.41E-04    0.15E-06
   0      9    11.376    13.303    0.12E-04    0.78E-05    0.13E-07
   0      9    11.376    44.613    0.65E-04    0.10E-03    0.17E-06
   1      9    11.376     5.276    0.85E-04    0.12E-04    0.29E-07
   1      9    11.376     7.322    0.38E-03    0.10E-03    0.13E-06
 PAW_PBE Cu 05Jan2001                   :
 energy of atom  1       EATOM=-1390.9800
 kinetic energy error for atom=    0.0032 (will be added to EATOM!!)
 
 
 POSCAR: Cu                                      
  positions in cartesian coordinates
  No initial velocities read in
 exchange correlation table for  LEXCH =        8
   RHO(1)=    0.500       N(1)  =     2000
   RHO(2)=  100.500       N(2)  =     4000
 


--------------------------------------------------------------------------------------------------------


 ion  position               nearest neighbor table
   1  0.000  0.000  0.000-   2 2.55   3 2.55   4 2.55   2 2.55   3 2.55   2 2.55   4 2.55   2 2.55
                             3 2.55   4 2.55   3 2.55   4 2.55
   2  0.000  0.500  0.500-   1 2.55   3 2.55   4 2.55   1 2.55   4 2.55   1 2.55   3 2.55   1 2.55
                             3 2.55   4 2.55   4 2.55   3 2.55
   3  0.500  0.000  0.500-   1 2.55   2 2.55   4 2.55   1 2.55   4 2.55   2 2.55   4 2.55   4 2.55
                             1 2.55   2 2.55   1 2.55   2 2.55
   4  0.500  0.500  0.000-   1 2.55   2 2.55   3 2.55   2 2.55   3 2.55   1 2.55   3 2.55   3 2.55
                             1 2.55   2 2.55   2 2.55   1 2.55
 

IMPORTANT INFORMATION: All symmetrisations will be switched off!
NOSYMM: (Re-)initialisation of all symmetry stuff for point group C_1.

 
 
 KPOINTS: Regular 4 x 4 x 4 mesh centered at Gamma

Automatic generation of k-mesh.
Space group operators:
 irot       det(A)        alpha          n_x          n_y          n_z        tau_x        tau_y        tau_z
    1     1.000000     0.000000     1.000000     0.000000     0.000000     0.000000     0.000000     0.000000
 
 Subroutine IBZKPT returns following result:
 ===========================================
 
 Found     36 irreducible k-points:
 
 Following reciprocal coordinates:
            Coordinates               Weight
  0.000000  0.000000  0.000000      1.000000
  0.250000  0.000000  0.000000      2.000000
  0.500000  0.000000  0.000000      1.000000
  0.000000  0.250000  0.000000      2.000000
  0.250000  0.250000  0.000000      2.000000
  0.500000  0.250000  0.000000      2.000000
 -0.250000  0.250000  0.000000      2.000000
  0.000000  0.500000  0.000000      1.000000
  0.250000  0.500000  0.000000      2.000000
  0.500000  0.500000  0.000000      1.000000
  0.000000  0.000000  0.250000      2.000000
  0.250000  0.000000  0.250000      2.000000
  0.500000  0.000000  0.250000      2.000000
 -0.250000  0.000000  0.250000      2.000000
  0.000000  0.250000  0.250000      2.000000
  0.250000  0.250000  0.250000      2.000000
  0.500000  0.250000  0.250000      2.000000
 -0.250000  0.250000  0.250000      2.000000
  0.000000  0.500000  0.250000      2.000000
  0.250000  0.500000  0.250000      2.000000
  0.500000  0.500000  0.250000      2.000000
 -0.250000  0.500000  0.250000      2.000000
  0.000000 -0.250000  0.250000      2.000000
  0.250000 -0.250000  0.250000      2.000000
  0.500000 -0.250000  0.250000      2.000000
 -0.250000 -0.250000  0.250000      2.000000
  0.000000  0.000000  0.500000      1.000000
  0.250000  0.000000  0.500000      2.000000
  0.500000  0.000000  0.500000      1.000000
  0.000000  0.250000  0.500000      2.000000
  0.250000  0.250000  0.500000      2.000000
  0.500000  0.250000  0.500000      2.000000
 -0.250000  0.250000  0.500000      2.000000
  0.000000  0.500000  0.500000      1.000000
  0.250000  0.500000  0.500000      2.000000
  0.500000  0.500000  0.500000      1.000000
 
 Following cartesian coordinates:
            Coordinates               Weight
  0.000000  0.000000  0.000000      1.000000
  0.069444  0.000000  0.000000      2.000000
  0.138889  0.000000  0.000000      1.000000
  0.000000  0.069444  0.000000      2.000000
  0.069444  0.069444  0.000000      2.000000
  0.138889  0.069444  0.000000      2.000000
 -0.069444  0.069444  0.000000      2.000000
  0.000000  0.138889  0.000000      1.000000
  0.069444  0.138889  0.000000      2.000000
  0.138889  0.138889  0.000000      1.000000
  0.000000  0.000000  0.069444      2.000000
  0.069444  0.000000  0.069444      2.000000
  0.138889  0.000000  0.069444      2.000000
 -0.069444  0.000000  0.069444      2.000000
  0.000000  0.069444  0.069444      2.000000
  0.069444  0.069444  0.069444      2.000000
  0.138889  0.069444  0.069444      2.000000
 -0.069444  0.069444  0.069444      2.000000
  0.000000  0.138889  0.069444      2.000000
  0.069444  0.138889  0.069444      2.000000
  0.138889  0.138889  0.069444      2.000000
 -0.069444  0.138889  0.069444      2.000000
  0.000000 -0.069444  0.069444      2.000000
  0.069444 -0.069444  0.069444      2.000000
  0.138889 -0.069444  0.069444      2.000000
 -0.069444 -0.069444  0.069444      2.000000
  0.000000  0.000000  0.138889      1.000000
  0.069444  0.000000  0.138889      2.000000
  0.138889  0.000000  0.138889      1.000000
  0.000000  0.069444  0.138889      2.000000
  0.069444  0.069444  0.138889      2.000000
  0.138889  0.069444  0.138889      2.000000
 -0.069444  0.069444  0.138889      2.000000
  0.000000  0.138889  0.138889      1.000000
  0.069444  0.138889  0.138889      2.000000
  0.138889  0.138889  0.138889      1.000000
 


--------------------------------------------------------------------------------------------------------




 Dimension of arrays:
   k-points           NKPTS =     36   k-points in BZ     NKDIM =     36   number of bands    NBANDS=     32
   number of dos      NEDOS =    301   number of ions     NIONS =      4
   non local maximal  LDIM  =      6   non local SUM 2l+1 LMDIM =     18
   total plane-waves  NPLWV =   8000
   max r-space proj   IRMAX =   1977   max aug-charges    IRDMAX=   6217
   dimension x,y,z NGX =    20 NGY =   20 NGZ =   20
   dimension x,y,z NGXF=    40 NGYF=   40 NGZF=   40
   support grid    NGXF=    40 NGYF=   40 NGZF=   40
   ions per type =               4
   NGX,Y,Z   is equivalent  to a cutoff of   9.24,  9.24,  9.24 a.u.
   NGXF,Y,Z  is equivalent  to a cutoff of  18.47, 18.47, 18.47 a.u.

 SYSTEM =  Cu_optimization                         
 POSCAR =  Cu                                      

 Startparameter for this run:
   NWRITE =      2    write-flag & timer
   PREC   = normal    normal or accurate (medium, high low for compatibility)
   ISTART =      0    job   : 0-new  1-cont  2-samecut
   ICHARG =      2    charge: 1-file 2-atom 10-const
   ISPIN  =      1    spin polarized calculation?
   LNONCOLLINEAR =      F non collinear calculations
   LSORBIT =      F    spin-orbit coupling
   INIWAV =      1    electr: 0-lowe 1-rand  2-diag
   LASPH  =      F    aspherical Exc in radial PAW
   METAGGA=      F    non-selfconsistent MetaGGA calc.

 Electronic Relaxation 1
   ENCUT  =  500.0 eV  36.75 Ry    6.06 a.u.   6.56  6.56  6.56*2*pi/ulx,y,z
   ENINI  =  500.0     initial cutoff
   ENAUG  =  516.5 eV  augmentation charge cutoff
   NELM   =     60;   NELMIN=  4; NELMDL= -5     # of ELM steps 
   EDIFF  = 0.1E-03   stopping-criterion for ELM
   LREAL  =      T    real-space projection
   NLSPLINE    = F    spline interpolate recip. space projectors
   LCOMPAT=      F    compatible to vasp.4.4
   GGA_COMPAT  = T    GGA compatible to vasp.4.4-vasp.4.6
   LMAXPAW     = -100 max onsite density
   LMAXMIX     =    2 max onsite mixed and CHGCAR
   VOSKOWN=      0    Vosko Wilk Nusair interpolation
   ROPT   =   -0.00050
 Ionic relaxation
   EDIFFG = -.1E-01   stopping-criterion for IOM
   NSW    =    700    number of steps for IOM
   NBLOCK =      1;   KBLOCK =    700    inner block; outer block 
   IBRION =      2    ionic relax: 0-MD 1-quasi-New 2-CG
   NFREE  =      1    steps in history (QN), initial steepest desc. (CG)
   ISIF   =      2    stress and relaxation
   IWAVPR =     11    prediction:  0-non 1-charg 2-wave 3-comb
   ISYM   =      0    0-nonsym 1-usesym 2-fastsym
   LCORR  =      T    Harris-Foulkes like correction to forces

   POTIM  = 0.1000    time-step for ionic-motion
   TEIN   =    0.0    initial temperature
   TEBEG  =    0.0;   TEEND  =   0.0 temperature during run
   SMASS  =  -3.00    Nose mass-parameter (am)
   estimated Nose-frequenzy (Omega)   =  0.10E-29 period in steps =****** mass=  -0.296E-27a.u.
   SCALEE = 1.0000    scale energy and forces
   NPACO  =    256;   APACO  = 16.0  distance and # of slots for P.C.
   PSTRESS=    0.0 pullay stress

  Mass of Ions in am
   POMASS =  63.55
  Ionic Valenz
   ZVAL   =  11.00
  Atomic Wigner-Seitz radii
   RWIGS  =  -1.00
  virtual crystal weights 
   VCA    =   1.00
   NELECT =      44.0000    total number of electrons
   NUPDOWN=      -1.0000    fix difference up-down

 DOS related values:
   EMIN   =  10.00;   EMAX   =-10.00  energy-range for DOS
   EFERMI =   0.00
   ISMEAR =     1;   SIGMA  =   0.20  broadening in eV -4-tet -1-fermi 0-gaus

 Electronic relaxation 2 (details)
   IALGO  =     38    algorithm
   LDIAG  =      T    sub-space diagonalisation (order eigenvalues)
   LSUBROT=      F    optimize rotation matrix (better conditioning)
   TURBO    =      0    0=normal 1=particle mesh
   IRESTART =      0    0=no restart 2=restart with 2 vectors
   NREBOOT  =      0    no. of reboots
   NMIN     =      0    reboot dimension
   EREF     =   0.00    reference energy to select bands
   IMIX   =      4    mixing-type and parameters
     AMIX     =   0.40;   BMIX     =  1.00
     AMIX_MAG =   1.60;   BMIX_MAG =  1.00
     AMIN     =   0.10
     WC   =   100.;   INIMIX=   1;  MIXPRE=   1;  MAXMIX= -45

 Intra band minimization:
   WEIMIN = 0.0010     energy-eigenvalue tresh-hold
   EBREAK =  0.78E-06  absolut break condition
   DEPER  =   0.30     relativ break condition  

   TIME   =   0.40     timestep for ELM

  volume/ion in A,a.u.               =      11.66        78.71
  Fermi-wavevector in a.u.,A,eV,Ry     =   1.605425  3.033812 35.067491  2.577388
  Thomas-Fermi vector in A             =   2.701773
 
 Write flags
   LWAVE        =      T    write WAVECAR
   LDOWNSAMPLE  =      F    k-point downsampling of WAVECAR
   LCHARG       =      T    write CHGCAR
   LVTOT        =      F    write LOCPOT, total local potential
   LVHAR        =      F    write LOCPOT, Hartree potential only
   LELF         =      F    write electronic localiz. function (ELF)
   LORBIT       =      0    0 simple, 1 ext, 2 COOP (PROOUT), +10 PAW based schemes


 Dipole corrections
   LMONO  =      F    monopole corrections only (constant potential shift)
   LDIPOL =      F    correct potential (dipole corrections)
   IDIPOL =      0    1-x, 2-y, 3-z, 4-all directions 
   EPSILON=  1.0000000 bulk dielectric constant

 Exchange correlation treatment:
   GGA     =    --    GGA type
   LEXCH   =     8    internal setting for exchange type
   VOSKOWN=      0    Vosko Wilk Nusair interpolation
   LHFCALC =     F    Hartree Fock is set to
   LHFONE  =     F    Hartree Fock one center treatment
   AEXX    =    0.0000 exact exchange contribution

 Linear response parameters
   LEPSILON=     F    determine dielectric tensor
   LRPA    =     F    only Hartree local field effects (RPA)
   LNABLA  =     F    use nabla operator in PAW spheres
   LVEL    =     F    velocity operator in full k-point grid
   LINTERFAST=   F  fast interpolation
   KINTER  =     0    interpolate to denser k-point grid
   CSHIFT  =0.1000    complex shift for real part using Kramers Kronig
   OMEGAMAX=  -1.0    maximum frequency
   DEG_THRESHOLD= 0.2000000E-02 threshold for treating states as degnerate
   RTIME   =   -0.100 relaxation time in fs
  (WPLASMAI=    0.000 imaginary part of plasma frequency in eV, 0.658/RTIME)
   DFIELD  = 0.0000000 0.0000000 0.0000000 field for delta impulse in time
 
 Orbital magnetization related:
   ORBITALMAG=     F  switch on orbital magnetization
   LCHIMAG   =     F  perturbation theory with respect to B field
   DQ        =  0.001000  dq finite difference perturbation B field
   LLRAUG    =     F  two centre corrections for induced B field



--------------------------------------------------------------------------------------------------------


 conjugate gradient relaxation of ions
 charge density and potential will be updated during run
 non-spin polarized calculation
 Variant of blocked Davidson
 Davidson routine will perform the subspace rotation
 perform sub-space diagonalisation
    after iterative eigenvector-optimisation
 modified Broyden-mixing scheme, WC =      100.0
 initial mixing is a Kerker type mixing with AMIX =  0.4000 and BMIX =      1.0000
 Hartree-type preconditioning will be used
 using additional bands           10
 real space projection scheme for non local part
 use partial core corrections
 calculate Harris-corrections to forces 
   (improved forces if not selfconsistent)
 use gradient corrections 
 use of overlap-Matrix (Vanderbilt PP)
 Methfessel and Paxton  Order N= 1 SIGMA  =   0.20


--------------------------------------------------------------------------------------------------------


  energy-cutoff  :      500.00
  volume of cell :       46.66
      direct lattice vectors                 reciprocal lattice vectors
     3.600000000  0.000000000  0.000000000     0.277777778  0.000000000  0.000000000
     0.000000000  3.600000000  0.000000000     0.000000000  0.277777778  0.000000000
     0.000000000  0.000000000  3.600000000     0.000000000  0.000000000  0.277777778

  length of vectors
     3.600000000  3.600000000  3.600000000     0.277777778  0.277777778  0.277777778


 
 k-points in units of 2pi/SCALE and weight: Regular 4 x 4 x 4 mesh centered at Gamma
   0.00000000  0.00000000  0.00000000       0.016
   0.06944444  0.00000000  0.00000000       0.031
   0.13888889  0.00000000  0.00000000       0.016
   0.00000000  0.06944444  0.00000000       0.031
   0.06944444  0.06944444  0.00000000       0.031
   0.13888889  0.06944444  0.00000000       0.031
  -0.06944444  0.06944444  0.00000000       0.031
   0.00000000  0.13888889  0.00000000       0.016
   0.06944444  0.13888889  0.00000000       0.031
   0.13888889  0.13888889  0.00000000       0.016
   0.00000000  0.00000000  0.06944444       0.031
   0.06944444  0.00000000  0.06944444       0.031
   0.13888889  0.00000000  0.06944444       0.031
  -0.06944444  0.00000000  0.06944444       0.031
   0.00000000  0.06944444  0.06944444       0.031
   0.06944444  0.06944444  0.06944444       0.031
   0.13888889  0.06944444  0.06944444       0.031
  -0.06944444  0.06944444  0.06944444       0.031
   0.00000000  0.13888889  0.06944444       0.031
   0.06944444  0.13888889  0.06944444       0.031
   0.13888889  0.13888889  0.06944444       0.031
  -0.06944444  0.13888889  0.06944444       0.031
   0.00000000 -0.06944444  0.06944444       0.031
   0.06944444 -0.06944444  0.06944444       0.031
   0.13888889 -0.06944444  0.06944444       0.031
  -0.06944444 -0.06944444  0.06944444       0.031
   0.00000000  0.00000000  0.13888889       0.016
   0.06944444  0.00000000  0.13888889       0.031
   0.13888889  0.00000000  0.13888889       0.016
   0.00000000  0.06944444  0.13888889       0.031
   0.06944444  0.06944444  0.13888889       0.031
   0.13888889  0.06944444  0.13888889       0.031
  -0.06944444  0.06944444  0.13888889       0.031
   0.00000000  0.13888889  0.13888889       0.016
   0.06944444  0.13888889  0.13888889       0.031
   0.13888889  0.13888889  0.13888889       0.016
 
 k-points in reciprocal lattice and weights: Regular 4 x 4 x 4 mesh centered at Gamma
   0.00000000  0.00000000  0.00000000       0.016
   0.25000000  0.00000000  0.00000000       0.031
   0.50000000  0.00000000  0.00000000       0.016
   0.00000000  0.25000000  0.00000000       0.031
   0.25000000  0.25000000  0.00000000       0.031
   0.50000000  0.25000000  0.00000000       0.031
  -0.25000000  0.25000000  0.00000000       0.031
   0.00000000  0.50000000  0.00000000       0.016
   0.25000000  0.50000000  0.00000000       0.031
   0.50000000  0.50000000  0.00000000       0.016
   0.00000000  0.00000000  0.25000000       0.031
   0.25000000  0.00000000  0.25000000       0.031
   0.50000000  0.00000000  0.25000000       0.031
  -0.25000000  0.00000000  0.25000000       0.031
   0.00000000  0.25000000  0.25000000       0.031
   0.25000000  0.25000000  0.25000000       0.031
   0.50000000  0.25000000  0.25000000       0.031
  -0.25000000  0.25000000  0.25000000       0.031
   0.00000000  0.50000000  0.25000000       0.031
   0.25000000  0.50000000  0.25000000       0.031
   0.50000000  0.50000000  0.25000000       0.031
  -0.25000000  0.50000000  0.25000000       0.031
   0.00000000 -0.25000000  0.25000000       0.031
   0.25000000 -0.25000000  0.25000000       0.031
   0.50000000 -0.25000000  0.25000000       0.031
  -0.25000000 -0.25000000  0.25000000       0.031
   0.00000000  0.00000000  0.50000000       0.016
   0.25000000  0.00000000  0.50000000       0.031
   0.50000000  0.00000000  0.50000000       0.016
   0.00000000  0.25000000  0.50000000       0.031
   0.25000000  0.25000000  0.50000000       0.031
   0.50000000  0.25000000  0.50000000       0.031
  -0.25000000  0.25000000  0.50000000       0.031
   0.00000000  0.50000000  0.50000000       0.016
   0.25000000  0.50000000  0.50000000       0.031
   0.50000000  0.50000000  0.50000000       0.016
 
 position of ions in fractional coordinates (direct lattice) 
   0.00000000  0.00000000  0.00000000
   0.00000000  0.50000000  0.50000000
   0.50000000  0.00000000  0.50000000
   0.50000000  0.50000000  0.00000000
 
 position of ions in cartesian coordinates  (Angst):
   0.00000000  0.00000000  0.00000000
   0.00000000  1.80000000  1.80000000
   1.80000000  0.00000000  1.80000000
   1.80000000  1.80000000  0.00000000
 


--------------------------------------------------------------------------------------------------------


 k-point  1 :   0.0000 0.0000 0.0000  plane waves:    1213
 k-point  2 :   0.2500 0.0000 0.0000  plane waves:    1213
 k-point  3 :   0.5000 0.0000 0.0000  plane waves:    1166
 k-point  4 :   0.0000 0.2500 0.0000  plane waves:    1213
 k-point  5 :   0.2500 0.2500 0.0000  plane waves:    1177
 k-point  6 :   0.5000 0.2500 0.0000  plane waves:    1176
 k-point  7 :  -0.2500 0.2500 0.0000  plane waves:    1177
 k-point  8 :   0.0000 0.5000 0.0000  plane waves:    1166
 k-point  9 :   0.2500 0.5000 0.0000  plane waves:    1176
 k-point 10 :   0.5000 0.5000 0.0000  plane waves:    1180
 k-point 11 :   0.0000 0.0000 0.2500  plane waves:    1213
 k-point 12 :   0.2500 0.0000 0.2500  plane waves:    1177
 k-point 13 :   0.5000 0.0000 0.2500  plane waves:    1176
 k-point 14 :  -0.2500 0.0000 0.2500  plane waves:    1177
 k-point 15 :   0.0000 0.2500 0.2500  plane waves:    1177
 k-point 16 :   0.2500 0.2500 0.2500  plane waves:    1181
 k-point 17 :   0.5000 0.2500 0.2500  plane waves:    1192
 k-point 18 :  -0.2500 0.2500 0.2500  plane waves:    1181
 k-point 19 :   0.0000 0.5000 0.2500  plane waves:    1176
 k-point 20 :   0.2500 0.5000 0.2500  plane waves:    1192
 k-point 21 :   0.5000 0.5000 0.2500  plane waves:    1200
 k-point 22 :  -0.2500 0.5000 0.2500  plane waves:    1192
 k-point 23 :   0.0000-0.2500 0.2500  plane waves:    1177
 k-point 24 :   0.2500-0.2500 0.2500  plane waves:    1181
 k-point 25 :   0.5000-0.2500 0.2500  plane waves:    1192
 k-point 26 :  -0.2500-0.2500 0.2500  plane waves:    1181
 k-point 27 :   0.0000 0.0000 0.5000  plane waves:    1166
 k-point 28 :   0.2500 0.0000 0.5000  plane waves:    1176
 k-point 29 :   0.5000 0.0000 0.5000  plane waves:    1180
 k-point 30 :   0.0000 0.2500 0.5000  plane waves:    1176
 k-point 31 :   0.2500 0.2500 0.5000  plane waves:    1192
 k-point 32 :   0.5000 0.2500 0.5000  plane waves:    1200
 k-point 33 :  -0.2500 0.2500 0.5000  plane waves:    1192
 k-point 34 :   0.0000 0.5000 0.5000  plane waves:    1180
 k-point 35 :   0.2500 0.5000 0.5000  plane waves:    1200
 k-point 36 :   0.5000 0.5000 0.5000  plane waves:    1208

 maximum and minimum number of plane-waves per node :      1213     1166

 maximum number of plane-waves:      1213
 maximum index in each direction: 
   IXMAX=    6   IYMAX=    6   IZMAX=    6
   IXMIN=   -7   IYMIN=   -7   IZMIN=   -7


 serial   3D FFT for wavefunctions
 parallel 3D FFT for charge:
    minimum data exchange during FFTs selected (reduces bandwidth)


 total amount of memory used by VASP MPI-rank0    33878. kBytes
=======================================================================

   base      :      30000. kBytes
   nonlr-proj:       1311. kBytes
   fftplans  :        373. kBytes
   grid      :        640. kBytes
   one-center:         62. kBytes
   wavefun   :       1492. kBytes
 
     INWAV:  cpu time    0.0000: real time    0.0001
 Broyden mixing: mesh for mixing (old mesh)
   NGX = 13   NGY = 13   NGZ = 13
  (NGX  = 40   NGY  = 40   NGZ  = 40)
  gives a total of   2197 points

 initial charge density was supplied:
 charge density of overlapping atoms calculated
 number of electron      44.0000000 magnetization 
 keeping initial charge density in first step


--------------------------------------------------------------------------------------------------------


 Maximum index for non-local projection operator         1863
 Maximum index for augmentation-charges          570 (set IRDMAX)


--------------------------------------------------------------------------------------------------------


 First call to EWALD:  gamma=   0.492
 Maximum number of real-space cells 3x 3x 3
 Maximum number of reciprocal cells 3x 3x 3

    FEWALD:  cpu time    0.0015: real time    0.0015


--------------------------------------- Iteration      1(   1)  ---------------------------------------


    POTLOK:  cpu time    0.0056: real time    0.0057
    SETDIJ:  cpu time    0.0025: real time    0.0025
     EDDAV:  cpu time    0.3435: real time    0.3437
       DOS:  cpu time    0.0008: real time    0.0008
    --------------------------------------------
      LOOP:  cpu time    0.3524: real time    0.3527

 eigenvalue-minimisations  :  2352
 total energy-change (2. order) : 0.1892437E+03  (-0.2191069E+04)
 number of electron      44.0000000 magnetization 
 augmentation part       44.0000000 magnetization 

 Free energy of the ion-electron system (eV)
  ---------------------------------------------------
  alpha Z        PSCENC =       438.14301440
  Ewald energy   TEWEN  =     -4438.08093867
  -Hartree energ DENC   =     -1295.12946344
  -exchange      EXHF   =         0.00000000
  -V(xc)+E(xc)   XCENC  =       175.75137332
  PAW double counting   =      4328.20916945    -4904.30802700
  entropy T*S    EENTRO =        -0.00550700
  eigenvalues    EBANDS =       320.75673124
  atomic energy  EATOM  =      5563.90732063
  Solvation  Ediel_sol  =         0.00000000
  ---------------------------------------------------
  free energy    TOTEN  =       189.24367292 eV

  energy without entropy =      189.24917991  energy(sigma->0) =      189.24550858


--------------------------------------------------------------------------------------------------------




--------------------------------------- Iteration      1(   2)  ---------------------------------------


     EDDAV:  cpu time    0.3312: real time    0.3313
       DOS:  cpu time    0.0006: real time    0.0006
    --------------------------------------------
      LOOP:  cpu time    0.3319: real time    0.3319

 eigenvalue-minimisations  :  2336
 total energy-change (2. order) :-0.2030013E+03  (-0.1967348E+03)
 number of electron      44.0000000 magnetization 
 augmentation part       44.0000000 magnetization 

 Free energy of the ion-electron system (eV)
  ---------------------------------------------------
  alpha Z        PSCENC =       438.14301440
  Ewald energy   TEWEN  =     -4438.08093867
  -Hartree energ DENC   =     -1295.12946344
  -exchange      EXHF   =         0.00000000
  -V(xc)+E(xc)   XCENC  =       175.75137332
  PAW double counting   =      4328.20916945    -4904.30802700
  entropy T*S    EENTRO =        -0.00572851
  eigenvalues    EBANDS =       117.75569386
  atomic energy  EATOM  =      5563.90732063
  Solvation  Ediel_sol  =         0.00000000
  ---------------------------------------------------
  free energy    TOTEN  =       -13.75758597 eV

  energy without entropy =      -13.75185746  energy(sigma->0) =      -13.75567647


--------------------------------------------------------------------------------------------------------




--------------------------------------- Iteration      1(   3)  ---------------------------------------


     EDDAV:  cpu time    0.3896: real time    0.3897
       DOS:  cpu time    0.0007: real time    0.0007
    --------------------------------------------
      LOOP:  cpu time    0.3903: real time    0.3904

 eigenvalue-minimisations  :  2752
 total energy-change (2. order) :-0.4553818E+01  (-0.4522348E+01)
 number of electron      44.0000000 magnetization 
 augmentation part       44.0000000 magnetization 

 Free energy of the ion-electron system (eV)
  ---------------------------------------------------
  alpha Z        PSCENC =       438.14301440
  Ewald energy   TEWEN  =     -4438.08093867
  -Hartree energ DENC   =     -1295.12946344
  -exchange      EXHF   =         0.00000000
  -V(xc)+E(xc)   XCENC  =       175.75137332
  PAW double counting   =      4328.20916945    -4904.30802700
  entropy T*S    EENTRO =        -0.00899612
  eigenvalues    EBANDS =       113.20514368
  atomic energy  EATOM  =      5563.90732063
  Solvation  Ediel_sol  =         0.00000000
  ---------------------------------------------------
  free energy    TOTEN  =       -18.31140376 eV

  energy without entropy =      -18.30240764  energy(sigma->0) =      -18.30840505


--------------------------------------------------------------------------------------------------------




--------------------------------------- Iteration      1(   4)  ---------------------------------------


     EDDAV:  cpu time    0.3622: real time    0.3623
       DOS:  cpu time    0.0006: real time    0.0006
    --------------------------------------------
      LOOP:  cpu time    0.3628: real time    0.3629

 eigenvalue-minimisations  :  2592
 total energy-change (2. order) :-0.1167929E-01  (-0.1167872E-01)
 number of electron      44.0000000 magnetization 
 augmentation part       44.0000000 magnetization 

 Free energy of the ion-electron system (eV)
  ---------------------------------------------------
  alpha Z        PSCENC =       438.14301440
  Ewald energy   TEWEN  =     -4438.08093867
  -Hartree energ DENC   =     -1295.12946344
  -exchange      EXHF   =         0.00000000
  -V(xc)+E(xc)   XCENC  =       175.75137332
  PAW double counting   =      4328.20916945    -4904.30802700
  entropy T*S    EENTRO =        -0.00896378
  eigenvalues    EBANDS =       113.19343206
  atomic energy  EATOM  =      5563.90732063
  Solvation  Ediel_sol  =         0.00000000
  ---------------------------------------------------
  free energy    TOTEN  =       -18.32308305 eV

  energy without entropy =      -18.31411927  energy(sigma->0) =      -18.32009512


--------------------------------------------------------------------------------------------------------




--------------------------------------- Iteration      1(   5)  ---------------------------------------


     EDDAV:  cpu time    0.3598: real time    0.3599
       DOS:  cpu time    0.0007: real time    0.0007
    CHARGE:  cpu time    0.0132: real time    0.0132
    MIXING:  cpu time    0.0005: real time    0.0005
    --------------------------------------------
      LOOP:  cpu time    0.3743: real time    0.3744

 eigenvalue-minimisations  :  2656
 total energy-change (2. order) :-0.2440119E-04  (-0.2440109E-04)
 number of electron      44.0000264 magnetization 
 augmentation part       26.7847585 magnetization 

 Broyden mixing:
  rms(total) = 0.13929E+01    rms(broyden)= 0.13929E+01
  rms(prec ) = 0.33447E+01
  weight for this iteration     100.00

 Free energy of the ion-electron system (eV)
  ---------------------------------------------------
  alpha Z        PSCENC =       438.14301440
  Ewald energy   TEWEN  =     -4438.08093867
  -Hartree energ DENC   =     -1295.12946344
  -exchange      EXHF   =         0.00000000
  -V(xc)+E(xc)   XCENC  =       175.75137332
  PAW double counting   =      4328.20916945    -4904.30802700
  entropy T*S    EENTRO =        -0.00896372
  eigenvalues    EBANDS =       113.19340759
  atomic energy  EATOM  =      5563.90732063
  Solvation  Ediel_sol  =         0.00000000
  ---------------------------------------------------
  free energy    TOTEN  =       -18.32310745 eV

  energy without entropy =      -18.31414374  energy(sigma->0) =      -18.32011955


--------------------------------------------------------------------------------------------------------




--------------------------------------- Iteration      1(   6)  ---------------------------------------


    POTLOK:  cpu time    0.0038: real time    0.0039
    SETDIJ:  cpu time    0.0020: real time    0.0020
     EDDAV:  cpu time    0.2828: real time    0.2828
       DOS:  cpu time    0.0005: real time    0.0005
    CHARGE:  cpu time    0.0072: real time    0.0072
    MIXING:  cpu time    0.0005: real time    0.0005
    --------------------------------------------
      LOOP:  cpu time    0.2969: real time    0.2970

 eigenvalue-minimisations  :  2304
 total energy-change (2. order) : 0.2285108E+01  (-0.2416868E+01)
 number of electron      44.0000282 magnetization 
 augmentation part       29.7487807 magnetization 

 Broyden mixing:
  rms(total) = 0.58970E+00    rms(broyden)= 0.58966E+00
  rms(prec ) = 0.12840E+01
  weight for this iteration     100.00

 eigenvalues of (default mixing * dielectric matrix)
  average eigenvalue GAMMA=   0.7048
  0.7048

 Free energy of the ion-electron system (eV)
  ---------------------------------------------------
  alpha Z        PSCENC =       438.14301440
  Ewald energy   TEWEN  =     -4438.08093867
  -Hartree energ DENC   =     -1197.04497923
  -exchange      EXHF   =         0.00000000
  -V(xc)+E(xc)   XCENC  =       170.76565142
  PAW double counting   =      4241.55737254    -4786.05549574
  entropy T*S    EENTRO =         0.01347988
  eigenvalues    EBANDS =        -9.24342476
  atomic energy  EATOM  =      5563.90732063
  Solvation  Ediel_sol  =         0.00000000
  ---------------------------------------------------
  free energy    TOTEN  =       -16.03799952 eV

  energy without entropy =      -16.05147941  energy(sigma->0) =      -16.04249282


--------------------------------------------------------------------------------------------------------




--------------------------------------- Iteration      1(   7)  ---------------------------------------


    POTLOK:  cpu time    0.0035: real time    0.0035
    SETDIJ:  cpu time    0.0019: real time    0.0019
     EDDAV:  cpu time    0.2823: real time    0.2824
       DOS:  cpu time    0.0005: real time    0.0005
    CHARGE:  cpu time    0.0072: real time    0.0072
    MIXING:  cpu time    0.0004: real time    0.0004
    --------------------------------------------
      LOOP:  cpu time    0.2958: real time    0.2959

 eigenvalue-minimisations  :  2304
 total energy-change (2. order) : 0.1149202E+01  (-0.4155375E+00)
 number of electron      44.0000275 magnetization 
 augmentation part       28.6598039 magnetization 

 Broyden mixing:
  rms(total) = 0.12609E+00    rms(broyden)= 0.12608E+00
  rms(prec ) = 0.31759E+00
  weight for this iteration     100.00

 eigenvalues of (default mixing * dielectric matrix)
  average eigenvalue GAMMA=   1.3524
  2.0467  0.6581

 Free energy of the ion-electron system (eV)
  ---------------------------------------------------
  alpha Z        PSCENC =       438.14301440
  Ewald energy   TEWEN  =     -4438.08093867
  -Hartree energ DENC   =     -1223.03921204
  -exchange      EXHF   =         0.00000000
  -V(xc)+E(xc)   XCENC  =       172.14477285
  PAW double counting   =      4325.96429526    -4893.95165179
  entropy T*S    EENTRO =         0.00251821
  eigenvalues    EBANDS =        40.02108337
  atomic energy  EATOM  =      5563.90732063
  Solvation  Ediel_sol  =         0.00000000
  ---------------------------------------------------
  free energy    TOTEN  =       -14.88879780 eV

  energy without entropy =      -14.89131601  energy(sigma->0) =      -14.88963720


--------------------------------------------------------------------------------------------------------




--------------------------------------- Iteration      1(   8)  ---------------------------------------


    POTLOK:  cpu time    0.0034: real time    0.0035
    SETDIJ:  cpu time    0.0019: real time    0.0019
     EDDAV:  cpu time    0.2880: real time    0.2880
       DOS:  cpu time    0.0005: real time    0.0005
    CHARGE:  cpu time    0.0074: real time    0.0074
    MIXING:  cpu time    0.0003: real time    0.0003
    --------------------------------------------
      LOOP:  cpu time    0.3015: real time    0.3016

 eigenvalue-minimisations  :  2352
 total energy-change (2. order) : 0.4649485E-01  (-0.2214847E-02)
 number of electron      44.0000275 magnetization 
 augmentation part       28.6706002 magnetization 

 Broyden mixing:
  rms(total) = 0.57374E-01    rms(broyden)= 0.57373E-01
  rms(prec ) = 0.14082E+00
  weight for this iteration     100.00

 eigenvalues of (default mixing * dielectric matrix)
  average eigenvalue GAMMA=   1.3889
  0.6805  0.9833  2.5031

 Free energy of the ion-electron system (eV)
  ---------------------------------------------------
  alpha Z        PSCENC =       438.14301440
  Ewald energy   TEWEN  =     -4438.08093867
  -Hartree energ DENC   =     -1210.70506657
  -exchange      EXHF   =         0.00000000
  -V(xc)+E(xc)   XCENC  =       171.57025284
  PAW double counting   =      4384.98307986    -4963.13127891
  entropy T*S    EENTRO =         0.00217654
  eigenvalues    EBANDS =        38.46913695
  atomic energy  EATOM  =      5563.90732063
  Solvation  Ediel_sol  =         0.00000000
  ---------------------------------------------------
  free energy    TOTEN  =       -14.84230294 eV

  energy without entropy =      -14.84447948  energy(sigma->0) =      -14.84302846


--------------------------------------------------------------------------------------------------------




--------------------------------------- Iteration      1(   9)  ---------------------------------------


    POTLOK:  cpu time    0.0035: real time    0.0036
    SETDIJ:  cpu time    0.0019: real time    0.0019
     EDDAV:  cpu time    0.3287: real time    0.3287
       DOS:  cpu time    0.0005: real time    0.0005
    CHARGE:  cpu time    0.0073: real time    0.0073
    MIXING:  cpu time    0.0004: real time    0.0004
    --------------------------------------------
      LOOP:  cpu time    0.3424: real time    0.3425

 eigenvalue-minimisations  :  2688
 total energy-change (2. order) : 0.6806606E-02  (-0.1030181E-02)
 number of electron      44.0000275 magnetization 
 augmentation part       28.7394195 magnetization 

 Broyden mixing:
  rms(total) = 0.21539E-02    rms(broyden)= 0.21522E-02
  rms(prec ) = 0.29066E-02
  weight for this iteration     100.00

 eigenvalues of (default mixing * dielectric matrix)
  average eigenvalue GAMMA=   1.5201
  0.6817  0.9355  2.5191  1.9439

 Free energy of the ion-electron system (eV)
  ---------------------------------------------------
  alpha Z        PSCENC =       438.14301440
  Ewald energy   TEWEN  =     -4438.08093867
  -Hartree energ DENC   =     -1205.79605668
  -exchange      EXHF   =         0.00000000
  -V(xc)+E(xc)   XCENC  =       171.33233028
  PAW double counting   =      4397.40178486    -4976.96147501
  entropy T*S    EENTRO =         0.00154586
  eigenvalues    EBANDS =        35.21697800
  atomic energy  EATOM  =      5563.90732063
  Solvation  Ediel_sol  =         0.00000000
  ---------------------------------------------------
  free energy    TOTEN  =       -14.83549634 eV

  energy without entropy =      -14.83704220  energy(sigma->0) =      -14.83601162


--------------------------------------------------------------------------------------------------------




--------------------------------------- Iteration      1(  10)  ---------------------------------------


    POTLOK:  cpu time    0.0034: real time    0.0035
    SETDIJ:  cpu time    0.0019: real time    0.0019
     EDDAV:  cpu time    0.2924: real time    0.2924
       DOS:  cpu time    0.0005: real time    0.0005
    --------------------------------------------
      LOOP:  cpu time    0.2982: real time    0.2983

 eigenvalue-minimisations  :  2384
 total energy-change (2. order) :-0.5609154E-04  (-0.3080027E-04)
 number of electron      44.0000275 magnetization 
 augmentation part       28.7394195 magnetization 

 Free energy of the ion-electron system (eV)
  ---------------------------------------------------
  alpha Z        PSCENC =       438.14301440
  Ewald energy   TEWEN  =     -4438.08093867
  -Hartree energ DENC   =     -1205.82092492
  -exchange      EXHF   =         0.00000000
  -V(xc)+E(xc)   XCENC  =       171.33334926
  PAW double counting   =      4398.16441366    -4977.61054278
  entropy T*S    EENTRO =         0.00152800
  eigenvalues    EBANDS =        35.12722800
  atomic energy  EATOM  =      5563.90732063
  Solvation  Ediel_sol  =         0.00000000
  ---------------------------------------------------
  free energy    TOTEN  =       -14.83555243 eV

  energy without entropy =      -14.83708043  energy(sigma->0) =      -14.83606176


--------------------------------------------------------------------------------------------------------




 average (electrostatic) potential at core
  the test charge radii are     1.0053
  (the norm of the test charge is              1.0000)
       1 -39.8619       2 -39.8655       3 -39.8636       4 -39.8623
 
 
 
 E-fermi :   3.9734     XC(G=0): -12.8763     alpha+bet : -9.7516


 k-point     1 :       0.0000    0.0000    0.0000
  band No.  band energies     occupation 
      1      -5.5463      2.00000
      2      -1.0778      2.00000
      3      -1.0775      2.00000
      4      -1.0768      2.00000
      5      -0.6192      2.00000
      6      -0.6192      2.00000
      7      -0.6192      2.00000
      8       0.7978      2.00000
      9       0.7978      2.00000
     10       0.7978      2.00000
     11       1.6421      2.00000
     12       1.6421      2.00000
     13       2.2013      2.00000
     14       2.2018      2.00000
     15       2.2027      2.00000
     16       2.3568      2.00000
     17       2.3575      2.00000
     18       2.3577      2.00000
     19       2.3585      2.00000
     20       2.3587      2.00000
     21       2.3594      2.00000
     22       5.4008     -0.00000
     23       5.4008     -0.00000
     24       5.4008     -0.00000
     25      11.1009      0.00000
     26      11.1009      0.00000
     27      11.1010      0.00000
     28      17.1692      0.00000
     29      17.1693      0.00000
     30      17.1694      0.00000
     31      17.1694      0.00000
     32      17.1695      0.00000

 k-point     2 :       0.2500    0.0000    0.0000
  band No.  band energies     occupation 
      1      -4.7906      2.00000
      2      -1.1868      2.00000
      3      -0.7521      2.00000
      4      -0.7517      2.00000
      5      -0.4212      2.00000
      6      -0.3987      2.00000
      7      -0.3987      2.00000
      8       0.5804      2.00000
      9       0.9784      2.00000
     10       0.9784      2.00000
     11       1.4250      2.00000
     12       1.4250      2.00000
     13       1.4506      2.00000
     14       1.7225      2.00000
     15       1.9515      2.00000
     16       1.9519      2.00000
     17       2.0684      2.00000
     18       2.0684      2.00000
     19       2.1184      2.00000
     20       2.3581      2.00000
     21       2.3589      2.00000
     22       2.6516      2.00000
     23       7.0144     -0.00000
     24       7.0144     -0.00000
     25      11.3967      0.00000
     26      11.3967      0.00000
     27      14.0275      0.00000
     28      14.0275      0.00000
     29      14.9741      0.00000
     30      14.9742      0.00000
     31      15.4527      0.00000
     32      18.2652      0.00000

 k-point     3 :       0.5000    0.0000    0.0000
  band No.  band energies     occupation 
      1      -2.7639      2.00000
      2      -2.7637      2.00000
      3      -0.3281      2.00000
      4      -0.3276      2.00000
      5       0.0696      2.00000
      6       0.0702      2.00000
      7       0.2856      2.00000
      8       0.2856      2.00000
      9       0.2862      2.00000
     10       0.2862      2.00000
     11       1.1810      2.00000
     12       1.1816      2.00000
     13       1.4706      2.00000
     14       1.4706      2.00000
     15       1.4713      2.00000
     16       1.4713      2.00000
     17       1.6013      2.00000
     18       1.6020      2.00000
     19       1.9186      2.00000
     20       1.9193      2.00000
     21       2.3585      2.00000
     22       2.3593      2.00000
     23      10.1580      0.00000
     24      10.1580      0.00000
     25      10.1580      0.00000
     26      10.1580      0.00000
     27      12.2759      0.00000
     28      12.2761      0.00000
     29      12.8580      0.00000
     30      12.8583      0.00000
     31      21.2274      0.00000
     32      21.2274      0.00000

 k-point     4 :       0.0000    0.2500    0.0000
  band No.  band energies     occupation 
      1      -4.7906      2.00000
      2      -1.1868      2.00000
      3      -0.7522      2.00000
      4      -0.7516      2.00000
      5      -0.4212      2.00000
      6      -0.3987      2.00000
      7      -0.3987      2.00000
      8       0.5804      2.00000
      9       0.9784      2.00000
     10       0.9784      2.00000
     11       1.4250      2.00000
     12       1.4250      2.00000
     13       1.4506      2.00000
     14       1.7225      2.00000
     15       1.9513      2.00000
     16       1.9521      2.00000
     17       2.0684      2.00000
     18       2.0684      2.00000
     19       2.1184      2.00000
     20       2.3579      2.00000
     21       2.3591      2.00000
     22       2.6516      2.00000
     23       7.0144     -0.00000
     24       7.0144     -0.00000
     25      11.3967      0.00000
     26      11.3968      0.00000
     27      14.0275      0.00000
     28      14.0275      0.00000
     29      14.9740      0.00000
     30      14.9742      0.00000
     31      15.4527      0.00000
     32      18.2652      0.00000

 k-point     5 :       0.2500    0.2500    0.0000
  band No.  band energies     occupation 
      1      -4.0683      2.00000
      2      -0.7825      2.00000
      3      -0.7820      2.00000
      4      -0.4904      2.00000
      5      -0.2550      2.00000
      6      -0.2380      2.00000
      7      -0.2375      2.00000
      8       0.5073      2.00000
      9       0.9662      2.00000
     10       0.9682      2.00000
     11       0.9758      2.00000
     12       1.0531      2.00000
     13       1.0671      2.00000
     14       1.4323      2.00000
     15       1.7783      2.00000
     16       1.8144      2.00000
     17       1.9211      2.00000
     18       1.9214      2.00000
     19       2.0645      2.00000
     20       2.0653      2.00000
     21       2.1592      2.00000
     22       4.1145      0.07634
     23       4.1154      0.07329
     24       8.2626     -0.00000
     25       9.6878      0.00000
     26      11.8477      0.00000
     27      14.9441      0.00000
     28      14.9441      0.00000
     29      15.6767      0.00000
     30      15.6771      0.00000
     31      16.1571      0.00000
     32      16.1571      0.00000

 k-point     6 :       0.5000    0.2500    0.0000
  band No.  band energies     occupation 
      1      -2.1709      2.00000
      2      -2.1708      2.00000
      3      -0.1212      2.00000
      4      -0.1209      2.00000
      5       0.0687      2.00000
      6       0.0689      2.00000
      7       0.1510      2.00000
      8       0.1515      2.00000
      9       0.3083      2.00000
     10       0.3087      2.00000
     11       0.7951      2.00000
     12       0.7953      2.00000
     13       1.4795      2.00000
     14       1.4801      2.00000
     15       1.5286      2.00000
     16       1.5292      2.00000
     17       1.5545      2.00000
     18       1.5551      2.00000
     19       2.0685      2.00000
     20       2.0691      2.00000
     21       2.3421      2.00000
     22       2.3421      2.00000
     23       6.3611     -0.00000
     24       6.3611     -0.00000
     25      11.1457      0.00000
     26      11.1458      0.00000
     27      13.1593      0.00000
     28      13.1595      0.00000
     29      17.3734      0.00000
     30      17.3736      0.00000
     31      17.8052      0.00000
     32      17.8054      0.00000

 k-point     7 :      -0.2500    0.2500    0.0000
  band No.  band energies     occupation 
      1      -4.0683      2.00000
      2      -0.7825      2.00000
      3      -0.7820      2.00000
      4      -0.4904      2.00000
      5      -0.2550      2.00000
      6      -0.2380      2.00000
      7      -0.2375      2.00000
      8       0.5073      2.00000
      9       0.9662      2.00000
     10       0.9682      2.00000
     11       0.9758      2.00000
     12       1.0531      2.00000
     13       1.0672      2.00000
     14       1.4323      2.00000
     15       1.7783      2.00000
     16       1.8144      2.00000
     17       1.9211      2.00000
     18       1.9214      2.00000
     19       2.0645      2.00000
     20       2.0653      2.00000
     21       2.1592      2.00000
     22       4.1145      0.07634
     23       4.1154      0.07329
     24       8.2626     -0.00000
     25       9.6878      0.00000
     26      11.8477      0.00000
     27      14.9441      0.00000
     28      14.9441      0.00000
     29      15.6767      0.00000
     30      15.6771      0.00000
     31      16.1571      0.00000
     32      16.1571      0.00000

 k-point     8 :       0.0000    0.5000    0.0000
  band No.  band energies     occupation 
      1      -2.7639      2.00000
      2      -2.7637      2.00000
      3      -0.3283      2.00000
      4      -0.3274      2.00000
      5       0.0694      2.00000
      6       0.0704      2.00000
      7       0.2854      2.00000
      8       0.2854      2.00000
      9       0.2863      2.00000
     10       0.2863      2.00000
     11       1.1808      2.00000
     12       1.1818      2.00000
     13       1.4704      2.00000
     14       1.4704      2.00000
     15       1.4715      2.00000
     16       1.4715      2.00000
     17       1.6011      2.00000
     18       1.6022      2.00000
     19       1.9184      2.00000
     20       1.9196      2.00000
     21       2.3583      2.00000
     22       2.3595      2.00000
     23      10.1580      0.00000
     24      10.1580      0.00000
     25      10.1580      0.00000
     26      10.1580      0.00000
     27      12.2759      0.00000
     28      12.2762      0.00000
     29      12.8580      0.00000
     30      12.8583      0.00000
     31      21.2273      0.00000
     32      21.2275      0.00000

 k-point     9 :       0.2500    0.5000    0.0000
  band No.  band energies     occupation 
      1      -2.1709      2.00000
      2      -2.1708      2.00000
      3      -0.1213      2.00000
      4      -0.1209      2.00000
      5       0.0686      2.00000
      6       0.0690      2.00000
      7       0.1509      2.00000
      8       0.1517      2.00000
      9       0.3081      2.00000
     10       0.3089      2.00000
     11       0.7951      2.00000
     12       0.7953      2.00000
     13       1.4793      2.00000
     14       1.4802      2.00000
     15       1.5284      2.00000
     16       1.5294      2.00000
     17       1.5543      2.00000
     18       1.5554      2.00000
     19       2.0683      2.00000
     20       2.0692      2.00000
     21       2.3421      2.00000
     22       2.3421      2.00000
     23       6.3611     -0.00000
     24       6.3611     -0.00000
     25      11.1457      0.00000
     26      11.1458      0.00000
     27      13.1592      0.00000
     28      13.1595      0.00000
     29      17.3734      0.00000
     30      17.3736      0.00000
     31      17.8052      0.00000
     32      17.8054      0.00000

 k-point    10 :       0.5000    0.5000    0.0000
  band No.  band energies     occupation 
      1      -0.8703      2.00000
      2      -0.8700      2.00000
      3      -0.8694      2.00000
      4      -0.8693      2.00000
      5       0.2882      2.00000
      6       0.2882      2.00000
      7       0.2902      2.00000
      8       0.2903      2.00000
      9       0.5001      2.00000
     10       0.5009      2.00000
     11       0.5025      2.00000
     12       0.5027      2.00000
     13       1.3094      2.00000
     14       1.3112      2.00000
     15       1.3125      2.00000
     16       1.3129      2.00000
     17       1.6332      2.00000
     18       1.6332      2.00000
     19       1.6356      2.00000
     20       1.6356      2.00000
     21       3.5686      2.01479
     22       3.5689      2.01486
     23       3.5705      2.01527
     24       3.5706      2.01529
     25      13.7077      0.00000
     26      13.7078      0.00000
     27      13.7079      0.00000
     28      13.7082      0.00000
     29      14.9562      0.00000
     30      14.9565      0.00000
     31      14.9567      0.00000
     32      14.9568      0.00000

 k-point    11 :       0.0000    0.0000    0.2500
  band No.  band energies     occupation 
      1      -4.7906      2.00000
      2      -1.1868      2.00000
      3      -0.7525      2.00000
      4      -0.7513      2.00000
      5      -0.4212      2.00000
      6      -0.3987      2.00000
      7      -0.3987      2.00000
      8       0.5804      2.00000
      9       0.9784      2.00000
     10       0.9784      2.00000
     11       1.4250      2.00000
     12       1.4250      2.00000
     13       1.4506      2.00000
     14       1.7225      2.00000
     15       1.9509      2.00000
     16       1.9525      2.00000
     17       2.0684      2.00000
     18       2.0684      2.00000
     19       2.1184      2.00000
     20       2.3572      2.00000
     21       2.3598      2.00000
     22       2.6516      2.00000
     23       7.0144     -0.00000
     24       7.0144     -0.00000
     25      11.3967      0.00000
     26      11.3968      0.00000
     27      14.0275      0.00000
     28      14.0275      0.00000
     29      14.9740      0.00000
     30      14.9743      0.00000
     31      15.4527      0.00000
     32      18.2652      0.00000

 k-point    12 :       0.2500    0.0000    0.2500
  band No.  band energies     occupation 
      1      -4.0683      2.00000
      2      -0.7824      2.00000
      3      -0.7822      2.00000
      4      -0.4904      2.00000
      5      -0.2550      2.00000
      6      -0.2379      2.00000
      7      -0.2376      2.00000
      8       0.5073      2.00000
      9       0.9667      2.00000
     10       0.9677      2.00000
     11       0.9758      2.00000
     12       1.0531      2.00000
     13       1.0671      2.00000
     14       1.4323      2.00000
     15       1.7783      2.00000
     16       1.8144      2.00000
     17       1.9212      2.00000
     18       1.9213      2.00000
     19       2.0647      2.00000
     20       2.0651      2.00000
     21       2.1592      2.00000
     22       4.1147      0.07553
     23       4.1152      0.07409
     24       8.2626     -0.00000
     25       9.6878      0.00000
     26      11.8477      0.00000
     27      14.9441      0.00000
     28      14.9441      0.00000
     29      15.6768      0.00000
     30      15.6770      0.00000
     31      16.1571      0.00000
     32      16.1571      0.00000

 k-point    13 :       0.5000    0.0000    0.2500
  band No.  band energies     occupation 
      1      -2.1709      2.00000
      2      -2.1708      2.00000
      3      -0.1212      2.00000
      4      -0.1209      2.00000
      5       0.0687      2.00000
      6       0.0689      2.00000
      7       0.1510      2.00000
      8       0.1515      2.00000
      9       0.3083      2.00000
     10       0.3087      2.00000
     11       0.7951      2.00000
     12       0.7953      2.00000
     13       1.4795      2.00000
     14       1.4801      2.00000
     15       1.5286      2.00000
     16       1.5292      2.00000
     17       1.5545      2.00000
     18       1.5551      2.00000
     19       2.0685      2.00000
     20       2.0691      2.00000
     21       2.3421      2.00000
     22       2.3421      2.00000
     23       6.3611     -0.00000
     24       6.3611     -0.00000
     25      11.1457      0.00000
     26      11.1458      0.00000
     27      13.1593      0.00000
     28      13.1595      0.00000
     29      17.3734      0.00000
     30      17.3736      0.00000
     31      17.8052      0.00000
     32      17.8054      0.00000

 k-point    14 :      -0.2500    0.0000    0.2500
  band No.  band energies     occupation 
      1      -4.0683      2.00000
      2      -0.7824      2.00000
      3      -0.7822      2.00000
      4      -0.4904      2.00000
      5      -0.2550      2.00000
      6      -0.2379      2.00000
      7      -0.2376      2.00000
      8       0.5073      2.00000
      9       0.9667      2.00000
     10       0.9677      2.00000
     11       0.9758      2.00000
     12       1.0531      2.00000
     13       1.0671      2.00000
     14       1.4323      2.00000
     15       1.7783      2.00000
     16       1.8144      2.00000
     17       1.9212      2.00000
     18       1.9213      2.00000
     19       2.0647      2.00000
     20       2.0651      2.00000
     21       2.1592      2.00000
     22       4.1147      0.07553
     23       4.1152      0.07409
     24       8.2626     -0.00000
     25       9.6878      0.00000
     26      11.8477      0.00000
     27      14.9441      0.00000
     28      14.9441      0.00000
     29      15.6768      0.00000
     30      15.6770      0.00000
     31      16.1571      0.00000
     32      16.1571      0.00000

 k-point    15 :       0.0000    0.2500    0.2500
  band No.  band energies     occupation 
      1      -4.0683      2.00000
      2      -0.7823      2.00000
      3      -0.7822      2.00000
      4      -0.4904      2.00000
      5      -0.2550      2.00000
      6      -0.2378      2.00000
      7      -0.2377      2.00000
      8       0.5073      2.00000
      9       0.9669      2.00000
     10       0.9675      2.00000
     11       0.9758      2.00000
     12       1.0531      2.00000
     13       1.0671      2.00000
     14       1.4323      2.00000
     15       1.7783      2.00000
     16       1.8144      2.00000
     17       1.9212      2.00000
     18       1.9213      2.00000
     19       2.0648      2.00000
     20       2.0650      2.00000
     21       2.1592      2.00000
     22       4.1148      0.07525
     23       4.1151      0.07437
     24       8.2626     -0.00000
     25       9.6878      0.00000
     26      11.8477      0.00000
     27      14.9441      0.00000
     28      14.9441      0.00000
     29      15.6769      0.00000
     30      15.6769      0.00000
     31      16.1571      0.00000
     32      16.1571      0.00000

 k-point    16 :       0.2500    0.2500    0.2500
  band No.  band energies     occupation 
      1      -3.4081      2.00000
      2      -0.6203      2.00000
      3      -0.6200      2.00000
      4      -0.6195      2.00000
      5      -0.0481      2.00000
      6      -0.0478      2.00000
      7      -0.0472      2.00000
      8       0.5444      2.00000
      9       0.8265      2.00000
     10       0.8277      2.00000
     11       0.8284      2.00000
     12       0.9587      2.00000
     13       0.9587      2.00000
     14       1.4515      2.00000
     15       1.4519      2.00000
     16       1.4528      2.00000
     17       1.7247      2.00000
     18       1.7247      2.00000
     19       2.2560      2.00000
     20       2.2565      2.00000
     21       2.2575      2.00000
     22       4.8361     -0.00000
     23       4.8363     -0.00000
     24       4.8364     -0.00000
     25      10.6883      0.00000
     26      10.6883      0.00000
     27      10.6883      0.00000
     28      16.5001      0.00000
     29      16.6269      0.00000
     30      16.6269      0.00000
     31      16.6269      0.00000
     32      20.2170      0.00000

 k-point    17 :       0.5000    0.2500    0.2500
  band No.  band energies     occupation 
      1      -1.7840      2.00000
      2      -1.7840      2.00000
      3      -0.4995      2.00000
      4      -0.4992      2.00000
      5       0.2037      2.00000
      6       0.2042      2.00000
      7       0.4102      2.00000
      8       0.4106      2.00000
      9       0.7349      2.00000
     10       0.7354      2.00000
     11       0.7755      2.00000
     12       0.7759      2.00000
     13       1.0698      2.00000
     14       1.0698      2.00000
     15       1.2564      2.00000
     16       1.2571      2.00000
     17       2.1109      2.00000
     18       2.1110      2.00000
     19       2.1586      2.00000
     20       2.1591      2.00000
     21       2.2780      2.00000
     22       2.2781      2.00000
     23       6.0089     -0.00000
     24       6.0089     -0.00000
     25       8.2128     -0.00000
     26       8.2128     -0.00000
     27      12.9876      0.00000
     28      12.9877      0.00000
     29      18.2614      0.00000
     30      18.2615      0.00000
     31      18.6789      0.00000
     32      18.6791      0.00000

 k-point    18 :      -0.2500    0.2500    0.2500
  band No.  band energies     occupation 
      1      -3.4081      2.00000
      2      -0.6203      2.00000
      3      -0.6200      2.00000
      4      -0.6195      2.00000
      5      -0.0481      2.00000
      6      -0.0478      2.00000
      7      -0.0472      2.00000
      8       0.5444      2.00000
      9       0.8265      2.00000
     10       0.8277      2.00000
     11       0.8284      2.00000
     12       0.9587      2.00000
     13       0.9587      2.00000
     14       1.4515      2.00000
     15       1.4519      2.00000
     16       1.4528      2.00000
     17       1.7247      2.00000
     18       1.7247      2.00000
     19       2.2560      2.00000
     20       2.2565      2.00000
     21       2.2575      2.00000
     22       4.8361     -0.00000
     23       4.8363     -0.00000
     24       4.8364     -0.00000
     25      10.6883      0.00000
     26      10.6883      0.00000
     27      10.6883      0.00000
     28      16.5001      0.00000
     29      16.6269      0.00000
     30      16.6269      0.00000
     31      16.6269      0.00000
     32      20.2169      0.00000

 k-point    19 :       0.0000    0.5000    0.2500
  band No.  band energies     occupation 
      1      -2.1709      2.00000
      2      -2.1708      2.00000
      3      -0.1213      2.00000
      4      -0.1209      2.00000
      5       0.0686      2.00000
      6       0.0690      2.00000
      7       0.1509      2.00000
      8       0.1517      2.00000
      9       0.3081      2.00000
     10       0.3089      2.00000
     11       0.7951      2.00000
     12       0.7953      2.00000
     13       1.4793      2.00000
     14       1.4802      2.00000
     15       1.5284      2.00000
     16       1.5294      2.00000
     17       1.5543      2.00000
     18       1.5554      2.00000
     19       2.0683      2.00000
     20       2.0692      2.00000
     21       2.3421      2.00000
     22       2.3421      2.00000
     23       6.3611     -0.00000
     24       6.3611     -0.00000
     25      11.1457      0.00000
     26      11.1458      0.00000
     27      13.1592      0.00000
     28      13.1595      0.00000
     29      17.3734      0.00000
     30      17.3736      0.00000
     31      17.8052      0.00000
     32      17.8054      0.00000

 k-point    20 :       0.2500    0.5000    0.2500
  band No.  band energies     occupation 
      1      -1.7841      2.00000
      2      -1.7840      2.00000
      3      -0.4996      2.00000
      4      -0.4991      2.00000
      5       0.2035      2.00000
      6       0.2044      2.00000
      7       0.4100      2.00000
      8       0.4107      2.00000
      9       0.7347      2.00000
     10       0.7356      2.00000
     11       0.7754      2.00000
     12       0.7760      2.00000
     13       1.0697      2.00000
     14       1.0698      2.00000
     15       1.2562      2.00000
     16       1.2573      2.00000
     17       2.1109      2.00000
     18       2.1110      2.00000
     19       2.1584      2.00000
     20       2.1592      2.00000
     21       2.2780      2.00000
     22       2.2781      2.00000
     23       6.0088     -0.00000
     24       6.0090     -0.00000
     25       8.2128     -0.00000
     26       8.2128     -0.00000
     27      12.9876      0.00000
     28      12.9877      0.00000
     29      18.2614      0.00000
     30      18.2615      0.00000
     31      18.6789      0.00000
     32      18.6792      0.00000

 k-point    21 :       0.5000    0.5000    0.2500
  band No.  band energies     occupation 
      1      -1.1070      2.00000
      2      -1.1070      2.00000
      3      -1.1069      2.00000
      4      -1.1068      2.00000
      5       0.6390      2.00000
      6       0.6398      2.00000
      7       0.6412      2.00000
      8       0.6414      2.00000
      9       0.9572      2.00000
     10       0.9583      2.00000
     11       0.9583      2.00000
     12       0.9585      2.00000
     13       1.0141      2.00000
     14       1.0141      2.00000
     15       1.0147      2.00000
     16       1.0147      2.00000
     17       2.0063      2.00000
     18       2.0064      2.00000
     19       2.0067      2.00000
     20       2.0074      2.00000
     21       3.4364      2.00097
     22       3.4366      2.00098
     23       3.4380      2.00101
     24       3.4380      2.00101
     25       9.6646      0.00000
     26       9.6646      0.00000
     27       9.6647      0.00000
     28       9.6648      0.00000
     29      20.4435      0.00000
     30      20.4438      0.00000
     31      20.4438      0.00000
     32      20.4439      0.00000

 k-point    22 :      -0.2500    0.5000    0.2500
  band No.  band energies     occupation 
      1      -1.7841      2.00000
      2      -1.7840      2.00000
      3      -0.4996      2.00000
      4      -0.4991      2.00000
      5       0.2035      2.00000
      6       0.2044      2.00000
      7       0.4100      2.00000
      8       0.4107      2.00000
      9       0.7347      2.00000
     10       0.7356      2.00000
     11       0.7754      2.00000
     12       0.7760      2.00000
     13       1.0697      2.00000
     14       1.0698      2.00000
     15       1.2562      2.00000
     16       1.2573      2.00000
     17       2.1109      2.00000
     18       2.1110      2.00000
     19       2.1584      2.00000
     20       2.1592      2.00000
     21       2.2780      2.00000
     22       2.2781      2.00000
     23       6.0088     -0.00000
     24       6.0090     -0.00000
     25       8.2128     -0.00000
     26       8.2128     -0.00000
     27      12.9876      0.00000
     28      12.9877      0.00000
     29      18.2614      0.00000
     30      18.2615      0.00000
     31      18.6789      0.00000
     32      18.6792      0.00000

 k-point    23 :       0.0000   -0.2500    0.2500
  band No.  band energies     occupation 
      1      -4.0683      2.00000
      2      -0.7823      2.00000
      3      -0.7822      2.00000
      4      -0.4904      2.00000
      5      -0.2550      2.00000
      6      -0.2378      2.00000
      7      -0.2377      2.00000
      8       0.5073      2.00000
      9       0.9669      2.00000
     10       0.9675      2.00000
     11       0.9758      2.00000
     12       1.0531      2.00000
     13       1.0671      2.00000
     14       1.4323      2.00000
     15       1.7783      2.00000
     16       1.8144      2.00000
     17       1.9212      2.00000
     18       1.9213      2.00000
     19       2.0648      2.00000
     20       2.0650      2.00000
     21       2.1592      2.00000
     22       4.1148      0.07525
     23       4.1151      0.07437
     24       8.2626     -0.00000
     25       9.6878      0.00000
     26      11.8477      0.00000
     27      14.9441      0.00000
     28      14.9441      0.00000
     29      15.6769      0.00000
     30      15.6769      0.00000
     31      16.1571      0.00000
     32      16.1571      0.00000

 k-point    24 :       0.2500   -0.2500    0.2500
  band No.  band energies     occupation 
      1      -3.4081      2.00000
      2      -0.6203      2.00000
      3      -0.6200      2.00000
      4      -0.6195      2.00000
      5      -0.0481      2.00000
      6      -0.0478      2.00000
      7      -0.0472      2.00000
      8       0.5444      2.00000
      9       0.8265      2.00000
     10       0.8277      2.00000
     11       0.8284      2.00000
     12       0.9587      2.00000
     13       0.9587      2.00000
     14       1.4515      2.00000
     15       1.4519      2.00000
     16       1.4528      2.00000
     17       1.7247      2.00000
     18       1.7247      2.00000
     19       2.2560      2.00000
     20       2.2565      2.00000
     21       2.2575      2.00000
     22       4.8361     -0.00000
     23       4.8363     -0.00000
     24       4.8364     -0.00000
     25      10.6883      0.00000
     26      10.6883      0.00000
     27      10.6883      0.00000
     28      16.5001      0.00000
     29      16.6269      0.00000
     30      16.6269      0.00000
     31      16.6269      0.00000
     32      20.2171      0.00000

 k-point    25 :       0.5000   -0.2500    0.2500
  band No.  band energies     occupation 
      1      -1.7840      2.00000
      2      -1.7840      2.00000
      3      -0.4995      2.00000
      4      -0.4992      2.00000
      5       0.2037      2.00000
      6       0.2042      2.00000
      7       0.4102      2.00000
      8       0.4106      2.00000
      9       0.7349      2.00000
     10       0.7354      2.00000
     11       0.7755      2.00000
     12       0.7759      2.00000
     13       1.0698      2.00000
     14       1.0698      2.00000
     15       1.2564      2.00000
     16       1.2571      2.00000
     17       2.1109      2.00000
     18       2.1110      2.00000
     19       2.1586      2.00000
     20       2.1591      2.00000
     21       2.2780      2.00000
     22       2.2781      2.00000
     23       6.0089     -0.00000
     24       6.0089     -0.00000
     25       8.2128     -0.00000
     26       8.2128     -0.00000
     27      12.9876      0.00000
     28      12.9877      0.00000
     29      18.2614      0.00000
     30      18.2615      0.00000
     31      18.6789      0.00000
     32      18.6791      0.00000

 k-point    26 :      -0.2500   -0.2500    0.2500
  band No.  band energies     occupation 
      1      -3.4081      2.00000
      2      -0.6203      2.00000
      3      -0.6200      2.00000
      4      -0.6195      2.00000
      5      -0.0481      2.00000
      6      -0.0478      2.00000
      7      -0.0472      2.00000
      8       0.5444      2.00000
      9       0.8265      2.00000
     10       0.8277      2.00000
     11       0.8284      2.00000
     12       0.9587      2.00000
     13       0.9587      2.00000
     14       1.4515      2.00000
     15       1.4519      2.00000
     16       1.4528      2.00000
     17       1.7247      2.00000
     18       1.7247      2.00000
     19       2.2560      2.00000
     20       2.2565      2.00000
     21       2.2575      2.00000
     22       4.8361     -0.00000
     23       4.8363     -0.00000
     24       4.8364     -0.00000
     25      10.6883      0.00000
     26      10.6883      0.00000
     27      10.6883      0.00000
     28      16.5001      0.00000
     29      16.6269      0.00000
     30      16.6269      0.00000
     31      16.6269      0.00000
     32      20.2169      0.00000

 k-point    27 :       0.0000    0.0000    0.5000
  band No.  band energies     occupation 
      1      -2.7641      2.00000
      2      -2.7636      2.00000
      3      -0.3288      2.00000
      4      -0.3269      2.00000
      5       0.0688      2.00000
      6       0.0710      2.00000
      7       0.2849      2.00000
      8       0.2849      2.00000
      9       0.2869      2.00000
     10       0.2869      2.00000
     11       1.1803      2.00000
     12       1.1824      2.00000
     13       1.4697      2.00000
     14       1.4697      2.00000
     15       1.4721      2.00000
     16       1.4721      2.00000
     17       1.6004      2.00000
     18       1.6028      2.00000
     19       1.9177      2.00000
     20       1.9202      2.00000
     21       2.3576      2.00000
     22       2.3602      2.00000
     23      10.1579      0.00000
     24      10.1579      0.00000
     25      10.1580      0.00000
     26      10.1580      0.00000
     27      12.2757      0.00000
     28      12.2764      0.00000
     29      12.8578      0.00000
     30      12.8585      0.00000
     31      21.2273      0.00000
     32      21.2275      0.00000

 k-point    28 :       0.2500    0.0000    0.5000
  band No.  band energies     occupation 
      1      -2.1710      2.00000
      2      -2.1707      2.00000
      3      -0.1216      2.00000
      4      -0.1206      2.00000
      5       0.0684      2.00000
      6       0.0692      2.00000
      7       0.1504      2.00000
      8       0.1521      2.00000
      9       0.3077      2.00000
     10       0.3093      2.00000
     11       0.7950      2.00000
     12       0.7955      2.00000
     13       1.4789      2.00000
     14       1.4807      2.00000
     15       1.5279      2.00000
     16       1.5299      2.00000
     17       1.5536      2.00000
     18       1.5560      2.00000
     19       2.0678      2.00000
     20       2.0698      2.00000
     21       2.3421      2.00000
     22       2.3421      2.00000
     23       6.3611     -0.00000
     24       6.3611     -0.00000
     25      11.1457      0.00000
     26      11.1458      0.00000
     27      13.1591      0.00000
     28      13.1597      0.00000
     29      17.3733      0.00000
     30      17.3738      0.00000
     31      17.8050      0.00000
     32      17.8056      0.00000

 k-point    29 :       0.5000    0.0000    0.5000
  band No.  band energies     occupation 
      1      -0.8702      2.00000
      2      -0.8697      2.00000
      3      -0.8697      2.00000
      4      -0.8694      2.00000
      5       0.2887      2.00000
      6       0.2888      2.00000
      7       0.2897      2.00000
      8       0.2897      2.00000
      9       0.5004      2.00000
     10       0.5017      2.00000
     11       0.5017      2.00000
     12       0.5024      2.00000
     13       1.3094      2.00000
     14       1.3112      2.00000
     15       1.3125      2.00000
     16       1.3129      2.00000
     17       1.6338      2.00000
     18       1.6338      2.00000
     19       1.6350      2.00000
     20       1.6350      2.00000
     21       3.5690      2.01488
     22       3.5695      2.01501
     23       3.5700      2.01513
     24       3.5702      2.01519
     25      13.7077      0.00000
     26      13.7077      0.00000
     27      13.7080      0.00000
     28      13.7082      0.00000
     29      14.9562      0.00000
     30      14.9565      0.00000
     31      14.9568      0.00000
     32      14.9568      0.00000

 k-point    30 :       0.0000    0.2500    0.5000
  band No.  band energies     occupation 
      1      -2.1710      2.00000
      2      -2.1707      2.00000
      3      -0.1216      2.00000
      4      -0.1206      2.00000
      5       0.0684      2.00000
      6       0.0692      2.00000
      7       0.1504      2.00000
      8       0.1521      2.00000
      9       0.3077      2.00000
     10       0.3093      2.00000
     11       0.7950      2.00000
     12       0.7955      2.00000
     13       1.4789      2.00000
     14       1.4807      2.00000
     15       1.5279      2.00000
     16       1.5299      2.00000
     17       1.5536      2.00000
     18       1.5560      2.00000
     19       2.0678      2.00000
     20       2.0698      2.00000
     21       2.3421      2.00000
     22       2.3421      2.00000
     23       6.3611     -0.00000
     24       6.3611     -0.00000
     25      11.1457      0.00000
     26      11.1458      0.00000
     27      13.1591      0.00000
     28      13.1597      0.00000
     29      17.3733      0.00000
     30      17.3738      0.00000
     31      17.8050      0.00000
     32      17.8056      0.00000

 k-point    31 :       0.2500    0.2500    0.5000
  band No.  band energies     occupation 
      1      -1.7841      2.00000
      2      -1.7839      2.00000
      3      -0.4999      2.00000
      4      -0.4989      2.00000
      5       0.2030      2.00000
      6       0.2049      2.00000
      7       0.4097      2.00000
      8       0.4111      2.00000
      9       0.7342      2.00000
     10       0.7361      2.00000
     11       0.7750      2.00000
     12       0.7763      2.00000
     13       1.0697      2.00000
     14       1.0699      2.00000
     15       1.2556      2.00000
     16       1.2579      2.00000
     17       2.1109      2.00000
     18       2.1111      2.00000
     19       2.1580      2.00000
     20       2.1597      2.00000
     21       2.2780      2.00000
     22       2.2782      2.00000
     23       6.0088     -0.00000
     24       6.0090     -0.00000
     25       8.2128     -0.00000
     26       8.2128     -0.00000
     27      12.9875      0.00000
     28      12.9878      0.00000
     29      18.2613      0.00000
     30      18.2616      0.00000
     31      18.6787      0.00000
     32      18.6794      0.00000

 k-point    32 :       0.5000    0.2500    0.5000
  band No.  band energies     occupation 
      1      -1.1072      2.00000
      2      -1.1071      2.00000
      3      -1.1068      2.00000
      4      -1.1067      2.00000
      5       0.6393      2.00000
      6       0.6405      2.00000
      7       0.6406      2.00000
      8       0.6412      2.00000
      9       0.9569      2.00000
     10       0.9577      2.00000
     11       0.9588      2.00000
     12       0.9589      2.00000
     13       1.0142      2.00000
     14       1.0143      2.00000
     15       1.0145      2.00000
     16       1.0146      2.00000
     17       2.0062      2.00000
     18       2.0063      2.00000
     19       2.0069      2.00000
     20       2.0075      2.00000
     21       3.4367      2.00098
     22       3.4370      2.00099
     23       3.4375      2.00100
     24       3.4377      2.00101
     25       9.6645      0.00000
     26       9.6646      0.00000
     27       9.6648      0.00000
     28       9.6649      0.00000
     29      20.4434      0.00000
     30      20.4437      0.00000
     31      20.4440      0.00000
     32      20.4440      0.00000

 k-point    33 :      -0.2500    0.2500    0.5000
  band No.  band energies     occupation 
      1      -1.7841      2.00000
      2      -1.7839      2.00000
      3      -0.4999      2.00000
      4      -0.4989      2.00000
      5       0.2030      2.00000
      6       0.2049      2.00000
      7       0.4097      2.00000
      8       0.4111      2.00000
      9       0.7342      2.00000
     10       0.7361      2.00000
     11       0.7750      2.00000
     12       0.7763      2.00000
     13       1.0697      2.00000
     14       1.0699      2.00000
     15       1.2556      2.00000
     16       1.2579      2.00000
     17       2.1109      2.00000
     18       2.1111      2.00000
     19       2.1580      2.00000
     20       2.1597      2.00000
     21       2.2780      2.00000
     22       2.2782      2.00000
     23       6.0088     -0.00000
     24       6.0090     -0.00000
     25       8.2128     -0.00000
     26       8.2128     -0.00000
     27      12.9875      0.00000
     28      12.9878      0.00000
     29      18.2613      0.00000
     30      18.2616      0.00000
     31      18.6787      0.00000
     32      18.6794      0.00000

 k-point    34 :       0.0000    0.5000    0.5000
  band No.  band energies     occupation 
      1      -0.8702      2.00000
      2      -0.8697      2.00000
      3      -0.8696      2.00000
      4      -0.8695      2.00000
      5       0.2889      2.00000
      6       0.2889      2.00000
      7       0.2895      2.00000
      8       0.2896      2.00000
      9       0.5005      2.00000
     10       0.5016      2.00000
     11       0.5020      2.00000
     12       0.5021      2.00000
     13       1.3094      2.00000
     14       1.3112      2.00000
     15       1.3125      2.00000
     16       1.3129      2.00000
     17       1.6340      2.00000
     18       1.6340      2.00000
     19       1.6347      2.00000
     20       1.6348      2.00000
     21       3.5691      2.01492
     22       3.5697      2.01506
     23       3.5698      2.01509
     24       3.5700      2.01514
     25      13.7076      0.00000
     26      13.7077      0.00000
     27      13.7079      0.00000
     28      13.7082      0.00000
     29      14.9562      0.00000
     30      14.9565      0.00000
     31      14.9568      0.00000
     32      14.9568      0.00000

 k-point    35 :       0.2500    0.5000    0.5000
  band No.  band energies     occupation 
      1      -1.1072      2.00000
      2      -1.1070      2.00000
      3      -1.1068      2.00000
      4      -1.1066      2.00000
      5       0.6394      2.00000
      6       0.6404      2.00000
      7       0.6408      2.00000
      8       0.6409      2.00000
      9       0.9569      2.00000
     10       0.9578      2.00000
     11       0.9586      2.00000
     12       0.9591      2.00000
     13       1.0143      2.00000
     14       1.0143      2.00000
     15       1.0145      2.00000
     16       1.0145      2.00000
     17       2.0061      2.00000
     18       2.0064      2.00000
     19       2.0068      2.00000
     20       2.0075      2.00000
     21       3.4369      2.00099
     22       3.4372      2.00099
     23       3.4374      2.00100
     24       3.4375      2.00100
     25       9.6645      0.00000
     26       9.6646      0.00000
     27       9.6647      0.00000
     28       9.6649      0.00000
     29      20.4434      0.00000
     30      20.4437      0.00000
     31      20.4439      0.00000
     32      20.4441      0.00000

 k-point    36 :       0.5000    0.5000    0.5000
  band No.  band energies     occupation 
      1      -1.2716      2.00000
      2      -1.2715      2.00000
      3      -1.2713      2.00000
      4      -1.2711      2.00000
      5       0.7667      2.00000
      6       0.7671      2.00000
      7       0.7673      2.00000
      8       0.7679      2.00000
      9       0.7681      2.00000
     10       0.7681      2.00000
     11       0.7687      2.00000
     12       0.7688      2.00000
     13       2.2151      2.00000
     14       2.2151      2.00000
     15       2.2154      2.00000
     16       2.2156      2.00000
     17       2.2157      2.00000
     18       2.2165      2.00000
     19       2.2167      2.00000
     20       2.2167      2.00000
     21       2.8656      2.00000
     22       2.8656      2.00000
     23       2.8657      2.00000
     24       2.8659      2.00000
     25       7.7062     -0.00000
     26       7.7062     -0.00000
     27       7.7062     -0.00000
     28       7.7062     -0.00000
     29      25.4744      0.00000
     30      25.4744      0.00000
     31      25.4745      0.00000
     32      25.4745      0.00000


--------------------------------------------------------------------------------------------------------


 soft charge-density along one line, spin component           1
         0         1         2         3         4         5         6         7         8         9
 total charge-density along one line
 
 pseudopotential strength for first ion, spin component:           1
 -6.378   0.000  -0.000   0.000   0.000   0.000   0.000   0.000  -0.000   0.000  -0.284   0.000   0.000   0.000  -0.000   0.000
 -0.000   0.000  -6.378   0.000   0.000   0.000  -0.000   0.000  -0.000   0.000   0.000   0.000  -0.284   0.000  -0.000   0.000
  0.000   0.000   0.000   0.000  -6.358   0.000   0.000   0.000   0.000   0.000  -0.000   0.000  -0.000   0.000  -0.292   0.000
  0.000   0.000  -0.000   0.000   0.000   0.000  -6.378   0.000   0.000   0.000  -0.000   0.000   0.000   0.000  -0.000   0.000
 -0.000   0.000  -0.000   0.000   0.000   0.000   0.000   0.000  -6.358   0.000   0.000   0.000   0.000   0.000  -0.000   0.000
 -0.284   0.000   0.000   0.000  -0.000   0.000  -0.000   0.000   0.000   0.000   1.695   0.000   0.000   0.000   0.000   0.000
  0.000   0.000  -0.284   0.000  -0.000   0.000   0.000   0.000   0.000   0.000   0.000   0.000   1.695   0.000   0.000   0.000
 -0.000   0.000  -0.000   0.000  -0.292   0.000  -0.000   0.000  -0.000   0.000   0.000   0.000   0.000   0.000   1.699   0.000
 -0.000   0.000   0.000   0.000  -0.000   0.000  -0.284   0.000  -0.000   0.000   0.000   0.000  -0.000   0.000   0.000   0.000
  0.000   0.000   0.000   0.000  -0.000   0.000  -0.000   0.000  -0.292   0.000  -0.000   0.000  -0.000   0.000   0.000   0.000
  0.000   0.000  -0.000   0.000   0.000   0.000  -0.000   0.000   0.000   0.000  -0.000   0.000   0.000   0.000   0.000   0.000
 -0.000   0.000   0.000   0.000  -0.000   0.000   0.000   0.000   0.000   0.000   0.000   0.000  -0.000   0.000   0.000   0.000
  0.000   0.000   0.000   0.000  -0.000   0.000  -0.000   0.000  -0.000   0.000  -0.000   0.000  -0.000   0.000   0.000   0.000
 -0.000   0.000   0.000   0.000   0.000   0.000   0.000   0.000   0.000   0.000   0.000   0.000  -0.000   0.000  -0.000   0.000
  0.000   0.000  -0.000   0.000  -0.000   0.000   0.000   0.000   0.000   0.000  -0.000   0.000   0.000   0.000   0.000   0.000
 -0.000   0.000   0.000   0.000   0.000   0.000  -0.000   0.000   0.000   0.000   0.000   0.000  -0.000   0.000  -0.000   0.000
 -0.000   0.000  -0.000   0.000  -0.000   0.000  -0.000   0.000  -0.000   0.000  -0.000   0.000   0.000   0.000   0.000   0.000
 -0.000   0.000  -0.000   0.000   0.000   0.000  -0.000   0.000  -0.000   0.000   0.000   0.000  -0.000   0.000  -0.000   0.000
 total augmentation occupancy for first ion, spin component:           1
  1.908   0.000  -0.000  -0.000   0.000  -0.012   0.000  -0.000  -0.000  -0.000  -0.000  -0.000   0.000   0.000  -0.000   0.000
  0.000   1.908   0.000  -0.000  -0.000   0.000  -0.012  -0.000  -0.000  -0.000   0.000   0.000  -0.000  -0.000  -0.000   0.000
 -0.000   0.000   1.917  -0.000   0.000  -0.000   0.000  -0.055  -0.000   0.000  -0.000   0.000   0.000  -0.000   0.000   0.000
 -0.000  -0.000  -0.000   1.908  -0.000   0.000  -0.000  -0.000  -0.012  -0.000   0.000   0.000   0.000  -0.000  -0.000   0.000
  0.000  -0.000   0.000  -0.000   1.917   0.000  -0.000   0.000  -0.000  -0.055   0.000  -0.000  -0.000   0.000  -0.000  -0.000
 -0.012   0.000  -0.000   0.000   0.000   0.084  -0.000  -0.000   0.000   0.000   0.000   0.000  -0.000   0.000  -0.000  -0.000
  0.000  -0.012   0.000  -0.000  -0.000  -0.000   0.084   0.000   0.000   0.000  -0.000   0.000   0.000   0.000  -0.000  -0.000
 -0.000  -0.000  -0.055  -0.000   0.000  -0.000   0.000   0.079   0.000   0.000   0.000   0.000  -0.000   0.000   0.000  -0.000
 -0.000  -0.000  -0.000  -0.012  -0.000   0.000   0.000   0.000   0.084   0.000  -0.000  -0.000   0.000   0.000  -0.000  -0.000
 -0.000  -0.000   0.000  -0.000  -0.055   0.000   0.000   0.000   0.000   0.079  -0.000   0.000  -0.000  -0.000  -0.000   0.000
 -0.000   0.000  -0.000   0.000   0.000   0.000  -0.000   0.000  -0.000  -0.000   1.218  -0.366   0.000  -0.000  -0.000  -0.000
 -0.000   0.000   0.000   0.000  -0.000   0.000   0.000   0.000  -0.000   0.000  -0.366   0.159   0.000  -0.000   0.000   0.000
  0.000  -0.000   0.000   0.000  -0.000  -0.000   0.000  -0.000   0.000  -0.000   0.000   0.000   0.200  -0.000   0.000  -0.014
  0.000  -0.000  -0.000  -0.000   0.000   0.000   0.000   0.000   0.000  -0.000  -0.000  -0.000  -0.000   0.200   0.000  -0.000
 -0.000  -0.000   0.000  -0.000  -0.000  -0.000  -0.000   0.000  -0.000  -0.000  -0.000   0.000   0.000   0.000   0.200   0.000
  0.000   0.000   0.000   0.000  -0.000  -0.000  -0.000  -0.000  -0.000   0.000  -0.000   0.000  -0.014  -0.000   0.000   0.001
 -0.000  -0.000  -0.000   0.000   0.000  -0.000  -0.000   0.000  -0.000   0.000  -0.000  -0.000   0.000  -0.014  -0.000  -0.000
  0.000  -0.000   0.000  -0.000  -0.000   0.000  -0.000  -0.000   0.000   0.000  -0.000  -0.000  -0.000   0.000  -0.014  -0.000


------------------------ aborting loop because EDIFF is reached ----------------------------------------


    CHARGE:  cpu time    0.0073: real time    0.0073
    FORLOC:  cpu time    0.0003: real time    0.0003
    FORNL :  cpu time    0.0745: real time    0.0746
    STRESS:  cpu time    0.2297: real time    0.2297
    FORCOR:  cpu time    0.0037: real time    0.0037
    FORHAR:  cpu time    0.0011: real time    0.0011
    MIXING:  cpu time    0.0006: real time    0.0006
    OFIELD:  cpu time    0.0000: real time    0.0000

  FORCE on cell =-STRESS in cart. coord.  units (eV):
  Direction    XX          YY          ZZ          XY          YZ          ZX
  --------------------------------------------------------------------------------------
  Alpha Z   438.14301   438.14301   438.14301
  Ewald   -1479.36096 -1479.36096 -1479.36096     0.00000     0.00000     0.00000
  Hartree   401.97932   401.97936   401.97945    -0.00000    -0.00000     0.00000
  E(xc)    -250.76713  -250.76713  -250.76714     0.00000    -0.00000    -0.00000
  Local     495.06219   495.06210   495.06191     0.00000     0.00000    -0.00000
  n-local  -145.22680  -145.22696  -145.22736     0.00001    -0.00000     0.00001
  augment   226.38112   226.38115   226.38098     0.00000    -0.00001    -0.00000
  Kinetic   315.01477   315.01482   315.01505    -0.00001    -0.00001    -0.00001
  Fock        0.00000     0.00000     0.00000     0.00000     0.00000     0.00000
  -------------------------------------------------------------------------------------
  Total       1.22553     1.22539     1.22495     0.00001    -0.00003    -0.00000
  in kB      42.08490    42.08008    42.06517     0.00040    -0.00088    -0.00007
  external pressure =       42.08 kB  Pullay stress =        0.00 kB


 VOLUME and BASIS-vectors are now :
 -----------------------------------------------------------------------------
  energy-cutoff  :      500.00
  volume of cell :       46.66
      direct lattice vectors                 reciprocal lattice vectors
     3.600000000  0.000000000  0.000000000     0.277777778  0.000000000  0.000000000
     0.000000000  3.600000000  0.000000000     0.000000000  0.277777778  0.000000000
     0.000000000  0.000000000  3.600000000     0.000000000  0.000000000  0.277777778

  length of vectors
     3.600000000  3.600000000  3.600000000     0.277777778  0.277777778  0.277777778


 FORCES acting on ions
    electron-ion (+dipol)            ewald-force                    non-local-force                 convergence-correction
 -----------------------------------------------------------------------------------------------
   0.120E-04 -.202E-04 -.207E-04   -.124E-13 -.315E-13 -.144E-14   0.376E-04 0.594E-05 -.471E-05   -.442E-04 0.237E-04 0.344E-04
   0.181E-04 0.111E-04 0.556E-05   -.119E-13 0.219E-13 0.487E-14   0.324E-04 0.419E-04 0.407E-04   -.419E-04 -.408E-04 -.489E-04
   -.112E-04 -.169E-04 0.718E-05   0.103E-13 -.229E-13 0.508E-14   -.950E-05 -.328E-04 0.658E-05   0.193E-04 0.466E-04 -.100E-04
   -.108E-04 0.200E-04 0.115E-04   0.108E-13 0.305E-13 -.113E-13   -.361E-04 -.140E-04 -.149E-04   0.394E-04 0.154E-06 -.244E-05
 -----------------------------------------------------------------------------------------------
   0.805E-05 -.605E-05 0.349E-05   -.314E-14 -.201E-14 -.280E-14   0.244E-04 0.111E-05 0.277E-04   -.274E-04 0.297E-04 -.269E-04
 
 
 POSITION                                       TOTAL-FORCE (eV/Angst)
 -----------------------------------------------------------------------------------
      0.00000      0.00000      0.00000         0.000004      0.000003      0.000008
      0.00000      1.80000      1.80000         0.000007      0.000006     -0.000004
      1.80000      0.00000      1.80000        -0.000003     -0.000009      0.000003
      1.80000      1.80000      0.00000        -0.000009     -0.000000     -0.000007
 -----------------------------------------------------------------------------------
    total drift:                                0.000005      0.000025      0.000004


--------------------------------------------------------------------------------------------------------



  FREE ENERGIE OF THE ION-ELECTRON SYSTEM (eV)
  ---------------------------------------------------
  free  energy   TOTEN  =       -14.83555243 eV

  energy  without entropy=      -14.83708043  energy(sigma->0) =      -14.83606176
 


--------------------------------------------------------------------------------------------------------


    POTLOK:  cpu time    0.0060: real time    0.0060


--------------------------------------------------------------------------------------------------------




--------------------------------------------------------------------------------------------------------


  
 reached required accuracy - stopping structural energy minimisation
 writing wavefunctions
     LOOP+:  cpu time    3.7959: real time    3.7974
    4ORBIT:  cpu time    0.0000: real time    0.0000

 total amount of memory used by VASP MPI-rank0    33878. kBytes
=======================================================================

   base      :      30000. kBytes
   nonlr-proj:       1311. kBytes
   fftplans  :        373. kBytes
   grid      :        640. kBytes
   one-center:         62. kBytes
   wavefun   :       1492. kBytes
 
  
  
 General timing and accounting informations for this job:
 ========================================================
  
                  Total CPU time used (sec):        4.408
                            User time (sec):        4.266
                          System time (sec):        0.142
                         Elapsed time (sec):        4.430
  
                   Maximum memory used (kb):       38112.
                   Average memory used (kb):           0.
  
                          Minor page faults:        13538
                          Major page faults:            0
                 Voluntary context switches:           86
