120
 energy: -265.949799245983 gnorm: 0.000389754475 xtb: 6.4.1 (a3dbbd7)
C         3.07325200000000   -2.01538400000000    0.52959200000000
C         3.78360400000000   -0.58631300000000    0.69052600000000
C         3.81013700000000    0.00584900000000   -0.76556400000000
C         2.34810800000000   -1.87780400000000   -0.77589500000000
C         2.77694200000000   -0.84458300000000   -1.47953600000000
C         1.57345600000000   -3.02421000000000   -1.32379100000000
C         0.56839600000000   -3.62236200000000   -0.26163000000000
C         2.14583700000000   -2.51515500000000    1.67457600000000
C         0.84198700000000   -3.34672000000000    1.25059400000000
C         1.55938500000000   -1.38982100000000    2.46794400000000
C         3.03677000000000    0.32393200000000    1.59995600000000
C         2.11084600000000   -0.18048700000000    2.57372900000000
C         2.81506800000000    1.65689700000000    1.43092600000000
C         3.57936100000000    1.58173000000000   -0.97648900000000
C         3.26009900000000    2.50060800000000    0.28986200000000
C         2.36450300000000    1.77317900000000   -1.83842000000000
C         2.39622900000000   -0.55442700000000   -2.89121700000000
C         1.90701100000000    0.87336700000000   -2.75744400000000
C         0.66832100000000   -2.62670200000000   -2.53701200000000
C         1.11637200000000   -1.37113400000000   -3.38961100000000
C        -0.73598800000000   -2.97877900000000   -0.66914300000000
C        -0.69132200000000   -2.45368400000000   -1.88351300000000
C        -2.00558200000000   -2.98214000000000    0.12566500000000
C        -0.29754900000000   -2.53752400000000    1.88890000000000
C         0.16854900000000   -1.59994600000000    2.72220300000000
C        -1.74919100000000   -2.81780700000000    1.66615900000000
C        -0.60719900000000   -0.74007000000000    3.65075600000000
C         1.48423400000000    0.96376600000000    3.32733500000000
C         1.75091800000000    2.07039400000000    2.30378000000000
C        -0.01300900000000    0.75030000000000    3.76125900000000
C         0.83616100000000    2.96661000000000    1.90122900000000
C         2.13288600000000    3.54899500000000   -0.22372800000000
C         1.55595700000000    2.84335000000000   -1.40640400000000
C         0.98231400000000    3.96277200000000    0.77544200000000
C         0.28035000000000    2.99667000000000   -1.86465700000000
C         0.56132800000000    0.94994600000000   -3.13401100000000
C         0.01916300000000   -0.32589300000000   -3.33454900000000
C        -0.23810400000000    1.99652800000000   -2.69706800000000
C        -1.84300200000000   -1.83019200000000   -2.61999700000000
C        -1.29791500000000   -0.49687500000000   -3.02366400000000
C        -2.73133500000000   -1.72529400000000   -0.26913700000000
C        -3.07110700000000   -1.46417700000000   -1.69712300000000
C        -2.67792000000000   -1.60330600000000    2.09820800000000
C        -2.09954900000000   -0.54962900000000    3.13271200000000
C        -3.05976500000000   -0.96965700000000    0.76026300000000
C        -0.90494800000000    1.50155600000000    2.83092000000000
C        -0.53478100000000    2.62595100000000    2.12058700000000
C        -2.02628800000000    0.79416000000000    2.46343900000000
C        -0.56177000000000    4.08867800000000    0.21652800000000
C        -0.83369200000000    3.83600000000000   -1.29929100000000
C        -1.28630500000000    3.06046700000000    1.03129700000000
C        -1.61109500000000    1.82205600000000   -2.47238900000000
C        -2.11216500000000    0.56254300000000   -2.57121000000000
C        -3.39739200000000    0.07184200000000   -1.97885600000000
C        -2.19101400000000    2.98843300000000   -1.73611100000000
C        -3.75850900000000    0.35446600000000    0.67507800000000
C        -2.77615300000000    1.23077000000000    1.39524100000000
C        -2.39228900000000    2.33888500000000    0.66161000000000
C        -3.88633400000000    0.99661600000000   -0.77070800000000
C        -3.15475600000000    2.46753500000000   -0.61421400000000
O         4.09436400000000   -2.98456600000000    0.36630800000000
H         4.92122500000000   -2.53367900000000    0.64329500000000
O         2.47179900000000   -4.00601300000000   -1.77806700000000
H         3.19571400000000   -4.08093300000000   -1.13938100000000
O         3.49372500000000   -0.75286800000000   -3.72842100000000
H         3.13346700000000   -1.03289000000000   -4.58876300000000
O         5.09042300000000   -0.79785500000000    1.16151100000000
H         5.69377300000000   -0.52826500000000    0.44576100000000
O         1.37711200000000   -1.76159600000000   -4.71025900000000
H         1.20362500000000   -2.72143200000000   -4.76006200000000
O         0.56875000000000   -3.72880000000000   -3.42201400000000
H         1.14190000000000   -4.42855700000000   -3.06546000000000
O         5.08038900000000   -0.32222600000000   -1.27725300000000
H         5.10328600000000   -0.04893800000000   -2.20648700000000
O         0.48904100000000   -4.99677900000000   -0.52281600000000
H         0.50178800000000   -5.45555200000000    0.33406400000000
O         0.89036900000000   -4.60228800000000    1.88112700000000
H         1.48412000000000   -4.50796500000000    2.64849700000000
O         2.90078700000000   -3.30052100000000    2.56385300000000
H         3.63149900000000   -3.68648800000000    2.04514000000000
O         4.71127900000000    2.09023100000000   -1.61901900000000
H         5.25193600000000    2.52686500000000   -0.93517200000000
O         4.40923500000000    3.21218300000000    0.64258200000000
H         4.30358400000000    4.09511800000000    0.22417100000000
O         2.82456700000000    4.70448200000000   -0.61460500000000
H         2.52313700000000    5.41366300000000   -0.00900100000000
O         1.34515100000000    5.21574700000000    1.29594500000000
H         0.50866100000000    5.72160700000000    1.37975000000000
O        -1.01424300000000    5.37236300000000    0.55136800000000
H        -1.08868400000000    5.85938700000000   -0.29493100000000
O        -0.90116000000000    5.09123600000000   -1.92016000000000
H        -1.62800200000000    5.02854200000000   -2.57530800000000
O        -2.91852800000000    3.80509300000000   -2.60862500000000
H        -3.69792700000000    4.10451700000000   -2.09230100000000
O        -4.17198900000000    3.42951200000000   -0.49632900000000
H        -5.01093100000000    2.93122700000000   -0.40568400000000
O        -5.23666100000000    1.26304300000000   -0.97220100000000
H        -5.41546200000000    1.10569400000000   -1.92244200000000
O        -4.40346000000000    0.09982400000000   -2.96536200000000
H        -4.88315300000000   -0.74891200000000   -2.89279300000000
O        -2.29614000000000   -2.66205800000000   -3.66608000000000
H        -1.54678600000000   -3.18466700000000   -3.98288700000000
O        -4.17446700000000   -2.26935500000000   -2.04445800000000
H        -3.93100200000000   -2.71574300000000   -2.87993900000000
O        -0.58978400000000   -1.36031600000000    4.89361600000000
H        -1.13414300000000   -0.80846300000000    5.48027600000000
O        -2.92093300000000   -0.48895100000000    4.26514800000000
H        -3.64806700000000   -1.12401500000000    4.13129400000000
O        -3.85751700000000   -2.14542700000000    2.65144300000000
H        -3.62503200000000   -3.06394400000000    2.90855900000000
O        -0.21070800000000    1.19444300000000    5.07161600000000
H         0.64115300000000    1.14873000000000    5.53120600000000
O        -2.16273500000000   -3.96442600000000    2.36065200000000
H        -2.40922900000000   -4.62870100000000    1.69241900000000
O         2.21173400000000    1.20044100000000    4.51974300000000
H         3.14676400000000    1.27079000000000    4.29561600000000
O        -2.76565000000000   -4.15020600000000   -0.10697100000000
H        -3.51461000000000   -3.92303700000000   -0.67513400000000
O        -5.03580500000000    0.30174500000000    1.24731000000000
H        -5.01328000000000   -0.32132200000000    1.98542600000000
