1
Lattice="3.6 0.0 0.0 0.0 3.6 0.0 0.0 0.0 3.6" Properties=species:S:1:pos:R:3:forces:R:3 energy=-1.28510625 stress="0.036083262762337275 -6.241509125883259e-09 4.9932073007066075e-08 -6.241509125883259e-09 0.036083225313282515 -2.4966036503533037e-08 4.9932073007066075e-08 -2.4966036503533037e-08 0.036083356384974154" free_energy=-1.28652362 pbc="T T T"
Cu       0.00000000       0.00000000       0.00000000       0.00000300      -0.00000000       0.00000100
