152
 energy: -338.966704445635 gnorm: 0.000250555916 xtb: 6.4.1 (a3dbbd7)
C        -3.01171500000000    0.42783100000000   -2.53114000000000
C        -2.97228300000000    1.88600100000000   -1.77822500000000
C        -3.33017800000000    1.54003600000000   -0.28824500000000
C        -3.41194900000000   -0.59077600000000   -1.38606100000000
C        -3.04017500000000    0.09586400000000   -0.11320500000000
C        -3.03628600000000   -2.10368600000000   -1.44644000000000
C        -1.78906600000000   -2.47954300000000   -2.33756200000000
C        -1.76463100000000    0.07695800000000   -3.39968200000000
C        -1.16644100000000   -1.39801100000000   -3.27977100000000
C        -0.52072800000000    0.89262000000000   -3.14307800000000
C        -1.67993700000000    2.75848800000000   -2.00800400000000
C        -0.48205300000000    2.00117200000000   -2.45712500000000
C        -1.07485700000000    3.56879000000000   -0.79784400000000
C        -2.64911400000000    2.42506100000000    0.78338900000000
C        -1.26164800000000    2.83347800000000    0.46330600000000
C        -2.58902000000000    1.80915700000000    2.23382800000000
C        -3.51884300000000   -0.50301200000000    1.15686300000000
C        -2.92354800000000    0.25238100000000    2.40903200000000
C        -2.74224000000000   -2.75671400000000   -0.01438100000000
C        -3.04421700000000   -1.98207100000000    1.27969200000000
C        -0.79745400000000   -3.12442800000000   -1.28281900000000
C        -1.20964700000000   -2.72414000000000    0.16571000000000
C         0.67399100000000   -3.10701400000000   -1.68834400000000
C         0.28176400000000   -1.09754500000000   -2.97357400000000
C         0.69328100000000    0.15610400000000   -3.66803000000000
C         1.07924600000000   -1.77747500000000   -2.19326000000000
C         2.10369600000000    0.72607000000000   -3.29124000000000
C         0.73712100000000    2.85388100000000   -2.37638500000000
C         0.46246700000000    3.78047800000000   -1.10564500000000
C         2.04223100000000    2.03486200000000   -2.40676600000000
C         1.45106400000000    3.52836000000000    0.09796000000000
C        -0.60422400000000    3.29174300000000    1.72137600000000
C        -1.15318600000000    2.26628000000000    2.76134600000000
C         0.95255200000000    3.51448000000000    1.60966600000000
C        -0.20390200000000    1.14534500000000    2.88444700000000
C        -1.79016700000000   -0.75412900000000    2.84019500000000
C        -1.57127800000000   -1.83553600000000    1.71843300000000
C        -0.62995600000000   -0.09996100000000    3.56643700000000
C        -0.40478600000000   -3.67908500000000    1.07300900000000
C        -0.72769900000000   -2.92629000000000    2.38707100000000
C         1.73305000000000   -3.49152200000000   -0.61252900000000
C         1.14953500000000   -3.52152600000000    0.84055700000000
C         2.56030400000000   -1.68318900000000   -2.21079400000000
C         3.13212500000000   -0.26564000000000   -2.47436800000000
C         2.99177500000000   -2.48051100000000   -0.92541900000000
C         2.46746400000000    1.56057700000000   -1.06213200000000
C         2.22147000000000    2.23816500000000    0.02877700000000
C         3.56586300000000    0.56310500000000   -1.21420700000000
C         1.86049300000000    2.43068700000000    2.33431800000000
C         1.09975600000000    1.22419600000000    2.72253300000000
C         2.97015800000000    2.02296500000000    1.30413100000000
C         0.66504400000000   -0.98331700000000    3.70075300000000
C         0.63845000000000   -2.32795600000000    2.90690400000000
C         1.43619000000000   -2.29231400000000    1.63980500000000
C         1.82952900000000    0.04663700000000    3.29490800000000
C         3.43053800000000   -1.63951000000000    0.29809000000000
C         4.00655000000000   -0.19100200000000    0.07228400000000
C         3.66972000000000    0.61663600000000    1.46072800000000
C         2.40162000000000   -1.45150200000000    1.35975900000000
C         2.91785000000000   -0.45671600000000    2.33911600000000
O        -4.06094400000000    0.46899700000000   -3.45465100000000
H        -4.89116900000000    0.34328900000000   -2.96852600000000
O        -4.16238900000000   -2.77239700000000   -1.94671800000000
H        -3.84705800000000   -3.27636900000000   -2.72929800000000
O        -4.93681800000000   -0.46864100000000    1.22921900000000
H        -5.14584600000000   -0.52198500000000    2.18378000000000
O        -4.01419500000000    2.64602800000000   -2.31718700000000
H        -4.75562900000000    2.59339400000000   -1.68370000000000
O        -3.93176200000000   -2.66723300000000    2.11361900000000
H        -3.97011600000000   -3.58160100000000    1.77386500000000
O        -3.34864300000000   -4.00977900000000    0.06166200000000
H        -3.91510300000000   -4.09305300000000   -0.73128800000000
O        -4.72468500000000    1.80034700000000   -0.13632400000000
H        -5.13690200000000    1.04761100000000    0.32621700000000
O        -2.24546300000000   -3.52083800000000   -3.16559600000000
H        -1.80033600000000   -3.42177000000000   -4.02689300000000
O        -1.17459200000000   -1.96378200000000   -4.57233200000000
H        -0.79646500000000   -1.29031600000000   -5.16948000000000
O        -2.05508400000000    0.32064900000000   -4.74967400000000
H        -3.01984000000000    0.34861100000000   -4.85082700000000
O        -1.71960100000000    4.82231900000000   -0.70393700000000
H        -1.13317800000000    5.46529900000000   -1.14712700000000
O        -1.93157100000000    3.69859400000000   -3.03125300000000
H        -2.89975600000000    3.76504600000000   -3.11558300000000
O         1.23723100000000    4.76729500000000    2.16323100000000
H         1.76526000000000    4.61169200000000    2.96736900000000
O        -1.19689200000000    4.53684400000000    2.05458800000000
H        -0.46544100000000    5.18291000000000    2.12308000000000
O        -3.90843500000000    0.15841500000000    3.41047500000000
H        -4.11799400000000    1.07615300000000    3.68048500000000
O        -3.53081000000000    2.49004800000000    3.02117300000000
H        -3.86199100000000    3.22711700000000    2.46290800000000
O        -1.25224000000000    2.85194900000000    4.02084700000000
H        -1.70103900000000    3.70488000000000    3.89799200000000
O         2.42076100000000    3.02996500000000    3.47728800000000
H         2.59822400000000    2.32887300000000    4.12698200000000
O         0.81560500000000   -3.99137900000000   -2.78805700000000
H         0.16424300000000   -4.70526900000000   -2.64732100000000
O        -0.75440700000000   -5.02799600000000    1.13414700000000
H        -1.27145600000000   -5.14330600000000    1.95456300000000
O         2.17218300000000   -4.79575100000000   -0.86966000000000
H         3.06014100000000   -4.70819200000000   -1.27963200000000
O         1.77253600000000   -4.58049000000000    1.53990500000000
H         1.99314800000000   -5.25346000000000    0.86692400000000
O         2.47799100000000    0.46183400000000    4.48094200000000
H         2.11566200000000   -0.13524500000000    5.17924400000000
O         0.84389200000000   -1.29098300000000    5.04896900000000
H         0.11531400000000   -0.82381100000000    5.52169900000000
O        -1.05150400000000    0.25235600000000    4.86590300000000
H        -1.92474700000000   -0.15293800000000    5.00986100000000
O        -1.30770700000000   -3.78050300000000    3.31930900000000
H        -0.66185100000000   -3.86671300000000    4.04680800000000
O         3.88578000000000   -1.14060900000000    3.11259100000000
H         4.02638400000000   -0.60679900000000    3.91428400000000
O         3.98116800000000    3.00924400000000    1.34201400000000
H         4.70978200000000    2.63370200000000    1.87330800000000
O         4.89162700000000    0.87676700000000    2.09641300000000
H         5.57469700000000    0.40873900000000    1.56432300000000
O         4.71818200000000    1.31695500000000   -1.56050900000000
H         4.45531700000000    2.00475800000000   -2.19950600000000
O         5.39821000000000   -0.35179500000000    0.02653800000000
H         5.72962500000000    0.23595700000000   -0.67799700000000
O         4.06681200000000   -3.28267800000000   -1.32630300000000
H         4.71113600000000   -3.28510200000000   -0.59524000000000
O         0.78940700000000    3.66566500000000   -3.52715500000000
H        -0.09514800000000    4.04528200000000   -3.65682100000000
O         3.06848100000000    2.90568600000000   -2.84912900000000
H         2.68048400000000    3.43748700000000   -3.56441200000000
O         2.72456300000000    1.06483700000000   -4.49570100000000
H         3.63492200000000    0.70237400000000   -4.45000600000000
O         0.62023800000000   -0.04474800000000   -5.05650600000000
H         1.20245300000000    0.61234200000000   -5.47085100000000
O        -4.84596200000000   -0.54297600000000   -1.41775000000000
H        -5.20325600000000   -1.15626900000000   -0.76155000000000
O         1.17490200000000   -3.29171200000000    3.78377700000000
H         1.59050600000000   -3.98863200000000    3.24486600000000
O         4.45175800000000   -2.42785400000000    0.88990600000000
H         4.60183200000000   -2.11323000000000    1.79899800000000
O         0.57920300000000    5.11153800000000   -1.51645700000000
H         1.46023300000000    5.41952500000000   -1.24298000000000
O         2.39364700000000    4.56995600000000   -0.03713700000000
H         3.16918700000000    4.35468700000000    0.50971100000000
O         4.28550500000000   -0.39950900000000   -3.25790900000000
H         4.26447400000000   -1.29420600000000   -3.64377200000000
O        -3.46166900000000    3.59295900000000    0.86425000000000
H        -3.00087500000000    4.33449500000000    0.43134400000000
O         2.97732600000000   -2.43735600000000   -3.34102100000000
H         2.41209900000000   -3.22573600000000   -3.41246500000000
O        -1.18130400000000   -4.48588100000000   -1.35249100000000
H        -1.01695700000000   -4.96401100000000   -0.51898900000000
O        -2.32854300000000   -1.55741500000000    3.86705800000000
H        -3.11927200000000   -2.03749400000000    3.55383600000000
