152
 energy: -338.976074841788 gnorm: 0.000447800257 xtb: 6.4.1 (a3dbbd7)
C         2.47959700000000    2.94062500000000   -0.21890500000000
C         3.04149900000000    1.86756900000000   -1.23250100000000
C         3.72902900000000    0.77757400000000   -0.36318000000000
C         2.53803900000000    2.17689900000000    1.15260000000000
C         2.80038600000000    0.67850400000000    0.85192500000000
C         1.58208000000000    2.66226900000000    2.25970000000000
C         0.18177500000000    3.18378100000000    1.83244600000000
C         1.13612700000000    3.67341900000000   -0.67790600000000
C        -0.00975500000000    3.85759100000000    0.43736800000000
C         0.33794400000000    3.12376900000000   -1.94099500000000
C         1.98862600000000    1.26221300000000   -2.07654100000000
C         1.09534500000000    2.15545200000000   -2.86040500000000
C         1.95508700000000    0.01092700000000   -2.49417700000000
C         3.70552900000000   -0.68865600000000   -0.84244000000000
C         2.97079700000000   -1.02091500000000   -2.18311500000000
C         2.78547600000000   -1.30224200000000    0.19938200000000
C         3.21467600000000   -0.02315400000000    2.13508000000000
C         3.17187100000000   -1.50120400000000    1.64977400000000
C         1.31835300000000    1.52866400000000    3.37232900000000
C         2.05276400000000    0.14257400000000    3.18421800000000
C        -0.70634200000000    2.02972100000000    2.14781700000000
C        -0.27819400000000    1.41735700000000    3.43587400000000
C        -1.88057800000000    1.82237200000000    1.61255800000000
C        -1.37030200000000    3.41720700000000   -0.27417700000000
C        -0.93296300000000    2.57227000000000   -1.40343600000000
C        -2.44862900000000    2.71441700000000    0.56825000000000
C        -1.95062700000000    2.14492500000000   -2.38376400000000
C         0.19828200000000    1.18560200000000   -3.73615700000000
C         1.03089500000000   -0.18541700000000   -3.65292000000000
C        -1.31784300000000    1.07619500000000   -3.34568400000000
C         0.23561000000000   -1.49927400000000   -3.50575500000000
C         2.34136600000000   -2.46083800000000   -2.00927500000000
C         2.45404400000000   -2.66062000000000   -0.44462300000000
C         0.94451000000000   -2.72239100000000   -2.76723100000000
C         1.35157700000000   -3.50342100000000    0.18216000000000
C         1.97210400000000   -2.18133000000000    2.41388200000000
C         1.14124100000000   -0.98348200000000    2.76992200000000
C         1.17512600000000   -3.34931100000000    1.73829000000000
C        -0.93434800000000    0.04248600000000    3.63298200000000
C        -0.15698500000000   -1.01844200000000    2.94881300000000
C        -2.95706800000000    0.93618300000000    2.14508400000000
C        -2.44030900000000   -0.18346700000000    3.12420900000000
C        -3.50090000000000    1.80218000000000   -0.19183500000000
C        -3.23249200000000    1.44470600000000   -1.73234100000000
C        -3.67463900000000    0.54262700000000    0.80764100000000
C        -1.66850800000000   -0.18056800000000   -2.62550400000000
C        -1.01572700000000   -1.31124900000000   -2.70506000000000
C        -3.07095300000000   -0.08139000000000   -2.13051100000000
C        -0.21190600000000   -3.34202900000000   -1.85418300000000
C         0.02797700000000   -3.16171400000000   -0.40751500000000
C        -1.54049900000000   -2.63474800000000   -2.25683100000000
C        -0.42561700000000   -3.27246000000000    1.89136000000000
C        -0.98216900000000   -2.24847700000000    2.88046100000000
C        -2.45203000000000   -1.72393000000000    2.61906500000000
C        -0.91609800000000   -3.01740300000000    0.50068300000000
C        -3.05692000000000   -0.69360600000000    0.30407200000000
C        -3.41119100000000   -1.13705600000000   -1.07012200000000
C        -2.73309200000000   -2.56977200000000   -1.22059200000000
C        -3.04291600000000   -1.89593800000000    1.18187200000000
C        -2.37482400000000   -2.97386200000000    0.25792100000000
O         3.48432100000000    3.92059000000000   -0.11934000000000
H         3.12420700000000    4.72488300000000   -0.55020100000000
O         2.17579600000000    3.77459900000000    2.89297200000000
H         3.13544600000000    3.71304800000000    2.71708600000000
O         4.45628500000000    0.31258000000000    2.66020600000000
H         4.94252600000000   -0.52416400000000    2.76709600000000
O         3.95790100000000    2.47190100000000   -2.11066000000000
H         4.52101300000000    3.04414900000000   -1.55659100000000
O         2.59390800000000   -0.23843700000000    4.43312300000000
H         2.56758900000000    0.55279700000000    5.00291500000000
O         1.75195700000000    2.03939200000000    4.59863300000000
H         2.01391400000000    2.96977500000000    4.43727500000000
O         5.04667300000000    1.20105600000000   -0.11749000000000
H         5.58271300000000    0.39077200000000   -0.02623500000000
O        -0.21974200000000    4.13405600000000    2.81019900000000
H         0.30030800000000    4.94082000000000    2.67811900000000
O        -0.09610100000000    5.23867300000000    0.67657200000000
H        -0.89225100000000    5.53034000000000    0.17084400000000
O         1.55936600000000    4.95800800000000   -1.06335300000000
H         1.06398300000000    5.59110200000000   -0.49861600000000
O         5.00609800000000   -1.20694100000000   -0.86562500000000
H         5.28810500000000   -1.22689500000000   -1.79566100000000
O         3.90162900000000   -1.05775000000000   -3.23985700000000
H         4.08941500000000   -2.02275000000000   -3.35390900000000
O         3.27424400000000   -3.33753200000000   -2.58855600000000
H         2.79137500000000   -3.80778000000000   -3.30753100000000
O         1.20989900000000   -3.68194300000000   -3.75663600000000
H         0.83358600000000   -4.52505900000000   -3.41442200000000
O        -0.31614400000000   -4.72052900000000   -2.11542100000000
H        -1.09602100000000   -4.82475600000000   -2.69622800000000
O        -2.92363100000000   -4.24589600000000    0.50062900000000
H        -2.40512500000000   -4.65749000000000    1.21928600000000
O        -5.03911600000000    0.32772200000000    1.02951600000000
H        -5.47203300000000    1.19727400000000    0.92440200000000
O        -3.92069700000000   -0.38513900000000   -3.21382800000000
H        -3.62852800000000    0.14655800000000   -3.97499500000000
O        -2.00038700000000   -3.33159400000000   -3.40736600000000
H        -2.96210500000000   -3.45663300000000   -3.28515700000000
O        -3.71796800000000   -3.44721100000000   -1.69700700000000
H        -3.87232500000000   -4.10969600000000   -0.99919700000000
O        -4.70959800000000    2.50059600000000   -0.13203600000000
H        -5.10943800000000    2.43120800000000   -1.02675300000000
O        -4.35699100000000    1.90247700000000   -2.43733500000000
H        -4.04733800000000    2.62963400000000   -3.01326100000000
O        -4.39586200000000   -2.29125000000000    1.38345000000000
H        -4.94362000000000   -1.94373900000000    0.65675300000000
O        -3.25919100000000   -2.45075200000000    3.50517400000000
H        -4.09707800000000   -2.63363100000000    3.03757700000000
O         0.21231400000000    1.64752000000000   -5.05113100000000
H         0.94411700000000    1.18551800000000   -5.50151400000000
O         1.80092900000000   -0.23166200000000   -4.83264400000000
H         2.69219600000000   -0.55110300000000   -4.60993600000000
O        -3.84956300000000    1.78145600000000    2.84653200000000
H        -4.02431600000000    1.34794100000000    3.70248400000000
O        -3.26823700000000   -0.11621900000000    4.24922700000000
H        -3.49983100000000   -1.04323000000000    4.47592200000000
O         4.38572900000000   -2.12643500000000    1.92393300000000
H         4.57291000000000   -2.73046000000000    1.18380600000000
O         1.65234400000000   -4.84479900000000   -0.14409800000000
H         1.42296400000000   -5.38274200000000    0.63113900000000
O         1.58847900000000   -4.56008800000000    2.29927200000000
H         2.01647200000000   -4.34801000000000    3.14742800000000
O         1.87123900000000    2.92463400000000   -3.75574500000000
H         2.78574300000000    2.95461600000000   -3.41709100000000
O        -0.01342300000000    4.24074200000000   -2.74513300000000
H         0.66276400000000    4.28476200000000   -3.45163700000000
O        -0.90163400000000   -4.54984800000000    2.25373800000000
H        -0.89669300000000   -4.57530800000000    3.22585900000000
O        -0.90634700000000   -0.28220000000000    5.00580200000000
H        -1.06137100000000    0.54798800000000    5.48504200000000
O        -2.44064900000000    3.23793300000000   -3.13274400000000
H        -1.73970900000000    3.91865600000000   -3.15095400000000
O         3.78534500000000    2.50185700000000    1.74075400000000
H         4.52982600000000    2.22180100000000    1.17151900000000
O        -2.09505300000000    1.07031500000000   -4.52490100000000
H        -1.50347700000000    1.37755200000000   -5.23953400000000
O        -0.75197100000000    2.18730500000000    4.51422500000000
H        -0.63994100000000    3.12495900000000    4.28267000000000
O        -0.11135300000000   -1.86227600000000   -4.81169600000000
H        -0.77202400000000   -2.57045400000000   -4.77186600000000
O        -3.13393100000000    3.76529900000000    1.21390100000000
H        -3.68957300000000    3.37187600000000    1.90927700000000
O         2.47641700000000   -2.73471400000000    3.61156700000000
H         2.74591800000000   -1.99746400000000    4.18862600000000
O        -0.93003100000000   -2.88244500000000    4.13987600000000
H        -1.00430800000000   -2.19714200000000    4.82454700000000
O         3.65746200000000   -3.37541000000000   -0.22987000000000
H         3.41156100000000   -4.31901700000000   -0.30575600000000
O        -4.81317600000000   -1.32006100000000   -1.09349400000000
H        -5.10482400000000   -1.17204700000000   -2.00940700000000
O        -1.97227700000000    4.60754900000000   -0.77719300000000
H        -2.79864600000000    4.73022000000000   -0.27267400000000
